
     Program PWSCF v.7.3.1 starts on 29May2024 at 11:42:27 

     This program is part of the open-source Quantum ESPRESSO suite
     for quantum simulation of materials; please cite
         "P. Giannozzi et al., J. Phys.:Condens. Matter 21 395502 (2009);
         "P. Giannozzi et al., J. Phys.:Condens. Matter 29 465901 (2017);
         "P. Giannozzi et al., J. Chem. Phys. 152 154105 (2020);
          URL http://www.quantum-espresso.org", 
     in publications or presentations arising from this work. More details at
     http://www.quantum-espresso.org/quote

     Parallel version (MPI), running on    64 processors

     MPI processes distributed on     1 nodes
     228743 MiB available memory on the printing compute node when the environment starts
 
     Reading input from scf.in

     Current dimensions of program PWSCF are:
     Max number of different atomic species (ntypx) = 10
     Max number of k-points (npk) =  40000
     Max angular momentum in pseudopotentials (lmaxx) =  4
     Message from routine iosys_1drism:
     default density from MOL file(H2O.tip5p.Nishihara.MOL) is used

     gamma-point specific algorithms are used
 
     R & G space division:  proc/nbgrp/npool/nimage =      64
     Subspace diagonalization in iterative solution of the eigenvalue problem:
     a serial algorithm will be used


     Molecule # 1 for H2O read from file:
     ../pseudo/H2O.tip5p.Nishihara.MOL
     Density:
         0.26741625E+03 cell^-1
         0.49533751E-02 bohr^-3
         0.55506881E+02 mol/L
         0.99997200E+00 g/cm^3
     Permittivity:
        78.500000
     Number of atoms:   5
     Atoms:
       #  atom      X (angs)      Y (angs)      Z (angs)      Q (e)         E (kcal/mol)  S (angs)
       1  O/h2o     0.00000000   -0.06556000    0.00000000    0.00000000    0.16000000    3.12000000
       2  H/h2o     0.75695000    0.52032000    0.00000000    0.24100000    0.04600000    1.00000000
       3  H/h2o    -0.75695000    0.52032000    0.00000000    0.24100000    0.04600000    1.00000000
       4  L/h2o     0.00000000   -0.46971000    0.57154000   -0.24100000    0.04600000    1.80000000
       5  L/h2o     0.00000000   -0.46971000   -0.57154000   -0.24100000    0.04600000    1.80000000


     Molecule # 2 for K+ read from file:
     ../pseudo/K+.Hagiwara.MOL
     Density:
         0.48177136E+01 cell^-1
         0.89238937E-04 bohr^-3
         0.10000000E+01 mol/L
         0.39098300E-01 g/cm^3
     Number of atoms:   1
     Atoms:
       #  atom      X (angs)      Y (angs)      Z (angs)      Q (e)         E (kcal/mol)  S (angs)
       1  K         0.00000000    0.00000000    0.00000000    1.00000000    0.00032800    4.93462800


     Molecule # 3 for OH- read from file:
     ../pseudo/OH-.oplsaa.MOL
     Density:
         0.48177136E+01 cell^-1
         0.89238937E-04 bohr^-3
         0.10000000E+01 mol/L
         0.17007340E-01 g/cm^3
     Number of atoms:   2
     Atoms:
       #  atom      X (angs)      Y (angs)      Z (angs)      Q (e)         E (kcal/mol)  S (angs)
       1  O/oh      0.00000000    0.00000000    0.00000000   -1.30000000    0.25000000    3.20000000
       2  H/oh      0.95300000    0.00000000    0.00000000    0.30000000    0.04600000    1.00000000


     1D-RISM info
     ------------
     closure equation        =           KH
     temperature             =     300.0000  kelvin
     coulomb smearing radius =       2.0000  bohr
     number of solvent sites =            8
     number of grids         =         5973
     maximum of R-space      =     999.8326  bohr
     maximum of G-space      =      18.7632  bohr^-1
     number of iterations    =        50000
     convergence threshold   =      1.0E-08
     Gaussian width of bonds =       0.3162  bohr
     size of MDIIS           =           20
     step of MDIIS           =       0.1000
     number of processes     =           64


     1D-RISM Calculation

     iter. #     1  RMS(g-h-1)= 7.798E-04  nbox=  0  T= 2400.00K
     iter. #   101  RMS(g-h-1)= 1.113E-05  nbox= 13  T= 1600.00K
     iter. #   201  RMS(g-h-1)= 1.465E-06  nbox= 20  T= 1066.67K
     iter. #   301  RMS(g-h-1)= 1.298E-06  nbox= 20  T=  711.11K
     iter. #   401  RMS(g-h-1)= 1.520E-06  nbox= 20  T=  474.07K
     iter. #   501  RMS(g-h-1)= 3.875E-06  nbox= 20  T=  316.05K
     iter. #   601  RMS(g-h-1)= 1.027E-06  nbox= 20  T=  300.00K
     iter. #   701  RMS(g-h-1)= 3.314E-07  nbox= 20  T=  300.00K
     iter. #   801  RMS(g-h-1)= 1.614E-07  nbox= 20  T=  300.00K
     iter. #   901  RMS(g-h-1)= 1.210E-07  nbox= 20  T=  300.00K
     iter. #  1001  RMS(g-h-1)= 9.787E-08  nbox= 20  T=  300.00K
     iter. #  1101  RMS(g-h-1)= 8.594E-08  nbox= 20  T=  300.00K
     iter. #  1201  RMS(g-h-1)= 7.259E-08  nbox= 20  T=  300.00K
     iter. #  1301  RMS(g-h-1)= 6.702E-08  nbox= 20  T=  300.00K
     iter. #  1401  RMS(g-h-1)= 6.340E-08  nbox= 20  T=  300.00K
     iter. #  1501  RMS(g-h-1)= 5.791E-08  nbox= 20  T=  300.00K
     iter. #  1601  RMS(g-h-1)= 5.262E-08  nbox= 20  T=  300.00K
     iter. #  1701  RMS(g-h-1)= 4.900E-08  nbox= 20  T=  300.00K
     iter. #  1801  RMS(g-h-1)= 4.578E-08  nbox= 20  T=  300.00K
     iter. #  1901  RMS(g-h-1)= 4.210E-08  nbox= 20  T=  300.00K
     iter. #  2001  RMS(g-h-1)= 3.911E-08  nbox= 20  T=  300.00K
     iter. #  2101  RMS(g-h-1)= 3.568E-08  nbox= 20  T=  300.00K
     iter. #  2201  RMS(g-h-1)= 3.334E-08  nbox= 20  T=  300.00K
     iter. #  2301  RMS(g-h-1)= 3.194E-08  nbox= 20  T=  300.00K
     iter. #  2401  RMS(g-h-1)= 3.118E-08  nbox= 20  T=  300.00K
     iter. #  2501  RMS(g-h-1)= 3.049E-08  nbox= 20  T=  300.00K
     iter. #  2601  RMS(g-h-1)= 3.043E-08  nbox= 20  T=  300.00K
     iter. #  2701  RMS(g-h-1)= 3.476E-08  nbox= 20  T=  300.00K
     iter. #  2801  RMS(g-h-1)= 2.970E-08  nbox= 20  T=  300.00K
     iter. #  2901  RMS(g-h-1)= 2.879E-08  nbox= 20  T=  300.00K
     iter. #  3001  RMS(g-h-1)= 2.810E-08  nbox= 20  T=  300.00K
     iter. #  3101  RMS(g-h-1)= 2.727E-08  nbox= 20  T=  300.00K
     iter. #  3201  RMS(g-h-1)= 2.628E-08  nbox= 20  T=  300.00K
     iter. #  3301  RMS(g-h-1)= 2.571E-08  nbox= 20  T=  300.00K
     iter. #  3401  RMS(g-h-1)= 2.422E-08  nbox= 20  T=  300.00K
     iter. #  3501  RMS(g-h-1)= 2.315E-08  nbox= 20  T=  300.00K
     iter. #  3601  RMS(g-h-1)= 2.168E-08  nbox= 20  T=  300.00K
     iter. #  3701  RMS(g-h-1)= 2.024E-08  nbox= 20  T=  300.00K
     iter. #  3801  RMS(g-h-1)= 1.935E-08  nbox= 20  T=  300.00K
     iter. #  3901  RMS(g-h-1)= 1.867E-08  nbox= 20  T=  300.00K
     iter. #  4001  RMS(g-h-1)= 1.798E-08  nbox= 20  T=  300.00K
     iter. #  4101  RMS(g-h-1)= 1.706E-08  nbox= 20  T=  300.00K
     iter. #  4201  RMS(g-h-1)= 1.678E-08  nbox= 20  T=  300.00K
     iter. #  4301  RMS(g-h-1)= 1.639E-08  nbox= 20  T=  300.00K
     iter. #  4401  RMS(g-h-1)= 1.608E-08  nbox= 20  T=  300.00K
     iter. #  4501  RMS(g-h-1)= 1.581E-08  nbox= 20  T=  300.00K
     iter. #  4601  RMS(g-h-1)= 1.559E-08  nbox= 20  T=  300.00K
     iter. #  4701  RMS(g-h-1)= 1.505E-08  nbox= 20  T=  300.00K
     iter. #  4801  RMS(g-h-1)= 1.465E-08  nbox= 20  T=  300.00K
     iter. #  4901  RMS(g-h-1)= 1.406E-08  nbox= 20  T=  300.00K
     iter. #  5001  RMS(g-h-1)= 1.340E-08  nbox= 20  T=  300.00K
     iter. #  5101  RMS(g-h-1)= 1.259E-08  nbox= 20  T=  300.00K
     iter. #  5201  RMS(g-h-1)= 1.201E-08  nbox= 20  T=  300.00K
     iter. #  5301  RMS(g-h-1)= 1.149E-08  nbox= 20  T=  300.00K
     iter. #  5401  RMS(g-h-1)= 1.123E-08  nbox= 20  T=  300.00K
     iter. #  5501  RMS(g-h-1)= 1.099E-08  nbox= 20  T=  300.00K
     iter. #  5601  RMS(g-h-1)= 1.080E-08  nbox= 20  T=  300.00K
     iter. #  5701  RMS(g-h-1)= 1.063E-08  nbox= 20  T=  300.00K
     iter. #  5801  RMS(g-h-1)= 1.036E-08  nbox= 20  T=  300.00K
     iter. #  5901  RMS(g-h-1)= 1.006E-08  nbox= 20  T=  300.00K
     iter. #  5916  RMS(g-h-1)= 9.999E-09  nbox= 20  T=  300.00K

     End of 1D-RISM calculation


     convergence has been achieved in  5916 iterations


     Chemical potential of solvation

     H2O        H2O        Closure      0.144037E+01 kcal/mol
                           GaussFluct  -0.702221E+01 kcal/mol

                K+         Closure     -0.280535E+00 kcal/mol
                           GaussFluct  -0.350075E+00 kcal/mol

                OH-        Closure     -0.749887E+00 kcal/mol
                           GaussFluct  -0.841428E+00 kcal/mol

                Total      Closure      0.409948E+00 kcal/mol
                           GaussFluct  -0.821372E+01 kcal/mol

     K+         H2O        Closure     -0.155716E+02 kcal/mol
                           GaussFluct  -0.194316E+02 kcal/mol

                K+         Closure      0.351545E+06 kcal/mol
                           GaussFluct   0.351545E+06 kcal/mol

                OH-        Closure     -0.351595E+06 kcal/mol
                           GaussFluct  -0.351595E+06 kcal/mol

                Total      Closure     -0.662660E+02 kcal/mol
                           GaussFluct  -0.701839E+02 kcal/mol

     OH-        H2O        Closure     -0.416239E+02 kcal/mol
                           GaussFluct  -0.467050E+02 kcal/mol

                K+         Closure     -0.351595E+06 kcal/mol
                           GaussFluct  -0.351595E+06 kcal/mol

                OH-        Closure      0.351544E+06 kcal/mol
                           GaussFluct   0.351544E+06 kcal/mol

                Total      Closure     -0.925523E+02 kcal/mol
                           GaussFluct  -0.977560E+02 kcal/mol

 
     Parallelization info
     --------------------
     sticks:   dense  smooth     PW     G-vecs:    dense   smooth      PW
     Min         567     284     69                81548    28832    3594
     Max         570     286     72                81558    28844    3612
     Sum       36381   18197   4537              5219483  1845573  230389
 
     Using Slab Decomposition
 


     bravais-lattice index     =            0
     lattice parameter (alat)  =      37.7945  a.u.
     unit-cell volume          =   53986.6760 (a.u.)^3
     number of atoms/cell      =            4
     number of atomic types    =            2
     number of electrons       =         8.00
     number of Kohn-Sham states=           20
     kinetic-energy cutoff     =      40.0000  Ry
     charge density cutoff     =     320.0000  Ry
     scf convergence threshold =      1.0E-06
     mixing beta               =       0.1000
     number of iterations used =            8  plain     mixing
     energy convergence thresh.=      1.0E-04
     force convergence thresh. =      1.0E-03
     Exchange-correlation=  SLA  PW   PBX  PBC
                           (   1   4   3   4   0   0   0)
     nstep                     =          100


     Effective Screening Medium Method
     =================================
     Boundary Conditions: Vacuum-Slab-Vacuum
     total charge in unit cell        =   1.0000
     grid points for fit at edges     =        4 
 

     celldm(1)=  37.794522  celldm(2)=   0.000000  celldm(3)=   0.000000
     celldm(4)=   0.000000  celldm(5)=   0.000000  celldm(6)=   0.000000

     crystal axes: (cart. coord. in units of alat)
               a(1) = (   1.000000   0.000000   0.000000 )  
               a(2) = (   0.000000   1.000000   0.000000 )  
               a(3) = (   0.000000   0.000000   1.000000 )  

     reciprocal axes: (cart. coord. in units 2 pi/alat)
               b(1) = (  1.000000  0.000000  0.000000 )  
               b(2) = (  0.000000  1.000000  0.000000 )  
               b(3) = (  0.000000  0.000000  1.000000 )  


     PseudoPot. # 1 for O  read from file:
     ../pseudo/o_pbe_v1.2.uspp.F.UPF
     MD5 check sum: 734c27235a0248c51dbae37a1fbe46ec
     Pseudo is Ultrasoft + core correction, Zval =  6.0
     Generated by new atomic code, or converted to UPF format
     Using radial grid of  737 points,  5 beta functions with: 
                l(1) =   0
                l(2) =   0
                l(3) =   1
                l(4) =   1
                l(5) =   2
     Q(r) pseudized with  8 coefficients,  rinner =    0.900   0.900   0.900
                                                       0.900   0.900

     PseudoPot. # 2 for H  read from file:
     ../pseudo/h_pbe_v1.4.uspp.F.UPF
     MD5 check sum: 761ae9a214b05c3daf00ab9f6b793d6f
     Pseudo is Ultrasoft, Zval =  1.0
     Generated by new atomic code, or converted to UPF format
     Using radial grid of  615 points,  2 beta functions with: 
                l(1) =   0
                l(2) =   0
     Q(r) pseudized with  8 coefficients,  rinner =    0.700

     atomic species   valence    mass     pseudopotential
     O                 6.00    16.00000     O ( 1.00)
     H                 1.00     1.00800     H ( 1.00)

     No symmetry found



   Cartesian axes

     site n.     atom                  positions (alat units)
         1        O      tau(   1) = (   0.0000000   0.0000000   0.0000000  )
         2        H      tau(   2) = (   0.0300000   0.0300000   0.0300000  )
         3        H      tau(   3) = (   0.0300000   0.0300000  -0.0300000  )
         4        H      tau(   4) = (  -0.0300000  -0.0250000   0.0000000  )

     number of k points=     1  Gaussian smearing, width (Ry)=  0.0100
                       cart. coord. in units 2pi/alat
        k(    1) = (   0.0000000   0.0000000   0.0000000), wk =   2.0000000

     Dense  grid:  2609742 G-vectors     FFT dimensions: ( 216, 216, 216)

     Smooth grid:   922787 G-vectors     FFT dimensions: ( 160, 160, 160)

     Estimated max dynamical RAM per process >     104.56 MB

     Estimated total dynamical RAM >       6.54 GB

     Solute:
       # atom     E (kcal/mol)  S (angs)
       1  O       0.15540000    3.16600000    given
       2  H       0.04600000    1.00000000    given
       3  H       0.04600000    1.00000000    given
       4  H       0.04600000    1.00000000    given


     Laue-RISM info
     --------------
     closure equation        =           KH
     temperature             =     300.0000  kelvin
     coulomb smearing radius =       2.0000  bohr
     number of solvent sites =            6
     solvent sites           =    O/h2o   H/h2o   L/h2o       K
     solvent sites           =     O/oh    H/oh
     number of iterations    =        10000
     convergence threshold   =      1.0E-06
     convergence level       =       0.5000
     size of MDIIS           =           10
     step of MDIIS           =       0.4000
     solvent cutoff          =     160.0000  Ry
     Custom grid:   922787 G-vectors     FFT dimensions: ( 160, 160, 160)

     Boundary Conditions        : Solvent-Slab-Solvent
     unit-cell (in bohr)        : [ -18.897261  18.897261]
     expand-cell (in bohr)      : [ -79.840929  79.604713]
     solvent of left (in bohr)  : [ -79.840929   0.000000]
     solvent of right (in bohr) : [   0.000000  79.604713]
     reference of potential     : average of both sides
     #grids to fit at edges of unit-cell =    4
     Laue grid:     9099 Gxy-vectors     FFT dimensions: ( 160, 160, 675)


     Initial potential from superposition of free atoms

     starting charge       9.0000, renormalised to       8.0000

     negative rho (up, down):  7.742E-04 0.000E+00

     Laue-RISM Calculation

     convergence threshold    = 1.000E-04
     iter. #     1  RMS(g-h-1)= 1.133E-01  nbox=  0
     iter. #    11  RMS(g-h-1)= 8.163E-03  nbox= 10
     iter. #    21  RMS(g-h-1)= 4.647E-03  nbox= 10
     iter. #    31  RMS(g-h-1)= 1.824E-03  nbox= 10
     iter. #    41  RMS(g-h-1)= 1.156E-03  nbox= 10
     iter. #    51  RMS(g-h-1)= 6.222E-04  nbox= 10
     iter. #    61  RMS(g-h-1)= 4.896E-04  nbox= 10
     iter. #    71  RMS(g-h-1)= 3.659E-04  nbox= 10
     iter. #    81  RMS(g-h-1)= 2.436E-04  nbox= 10
     iter. #    91  RMS(g-h-1)= 1.936E-04  nbox= 10
     iter. #   101  RMS(g-h-1)= 1.499E-04  nbox= 10
     iter. #   111  RMS(g-h-1)= 1.107E-04  nbox= 10
     iter. #   115  RMS(g-h-1)= 9.988E-05  nbox= 10

     End of Laue-RISM calculation


     convergence has been achieved in   115 iterations


     solvent charge   -1.05746, renormalised to   -1.00000

     Total number of solvent (in expand-cell)
     H2O         1129.251851
     K+            20.050501
     OH-           21.077471

     Total charge of solvent (in expand-cell)
     H2O           -0.006427 e
     K+            20.050501 e
     OH-          -21.101535 e
     Total         -1.057460 e

     Chemical potential of solvation (in expand-cell)
     H2O        GaussFluct  -0.379674E+02 kcal/mol
     K+         GaussFluct  -0.224041E+04 kcal/mol
     OH-        GaussFluct   0.222424E+04 kcal/mol
     Total      GaussFluct  -0.541373E+02 kcal/mol

     Starting wfcs are    7 randomized atomic wfcs +   13 random wfcs

     total cpu time spent up to now is      261.9 secs

     Self-consistent Calculation

     iteration #  1     ecut=    40.00 Ry     beta= 0.10
     Davidson diagonalization with overlap
     ethr =  1.00E-02,  avg # of iterations =  9.0

     negative rho (up, down):  1.238E-03 0.000E+00

     Laue-RISM Calculation

     convergence threshold    = 1.000E-04
     iter. #     1  RMS(g-h-1)= 5.871E-03  nbox=  0
     iter. #    11  RMS(g-h-1)= 7.102E-04  nbox= 10
     iter. #    21  RMS(g-h-1)= 2.865E-04  nbox= 10
     iter. #    31  RMS(g-h-1)= 2.311E-04  nbox= 10
     iter. #    41  RMS(g-h-1)= 1.706E-04  nbox=  4
     iter. #    51  RMS(g-h-1)= 1.095E-04  nbox= 10
     iter. #    56  RMS(g-h-1)= 9.939E-05  nbox= 10

     End of Laue-RISM calculation


     convergence has been achieved in    56 iterations


     solvent charge   -1.06904, renormalised to   -1.00000

     Total number of solvent (in expand-cell)
     H2O         1129.268923
     K+            20.051775
     OH-           21.071395

     Total charge of solvent (in expand-cell)
     H2O           -0.003555 e
     K+            20.051775 e
     OH-          -21.117257 e
     Total         -1.069037 e

     Chemical potential of solvation (in expand-cell)
     H2O        GaussFluct  -0.383179E+02 kcal/mol
     K+         GaussFluct  -0.224075E+04 kcal/mol
     OH-        GaussFluct   0.222428E+04 kcal/mol
     Total      GaussFluct  -0.547844E+02 kcal/mol


     total cpu time spent up to now is      300.0 secs

     total energy              =     -35.79219933 Ry
     estimated scf accuracy    <       2.48928502 Ry

     iteration #  2     ecut=    40.00 Ry     beta= 0.10
     Davidson diagonalization with overlap
     ethr =  1.00E-02,  avg # of iterations =  1.0

     negative rho (up, down):  4.586E-03 0.000E+00

     Laue-RISM Calculation

     convergence threshold    = 1.000E-04
     iter. #     1  RMS(g-h-1)= 2.335E-02  nbox=  0
     iter. #    11  RMS(g-h-1)= 2.909E-03  nbox= 10
     iter. #    21  RMS(g-h-1)= 1.638E-03  nbox= 10
     iter. #    31  RMS(g-h-1)= 8.742E-04  nbox= 10
     iter. #    41  RMS(g-h-1)= 6.474E-04  nbox= 10
     iter. #    51  RMS(g-h-1)= 4.578E-04  nbox= 10
     iter. #    61  RMS(g-h-1)= 3.977E-04  nbox= 10
     iter. #    71  RMS(g-h-1)= 3.270E-04  nbox=  6
     iter. #    81  RMS(g-h-1)= 2.120E-04  nbox= 10
     iter. #    91  RMS(g-h-1)= 1.650E-04  nbox= 10
     iter. #   101  RMS(g-h-1)= 1.217E-04  nbox= 10
     iter. #   104  RMS(g-h-1)= 9.898E-05  nbox= 10

     End of Laue-RISM calculation


     convergence has been achieved in   104 iterations


     solvent charge   -0.98799, renormalised to   -1.00000

     Total number of solvent (in expand-cell)
     H2O         1129.502667
     K+            20.070027
     OH-           21.027013

     Total charge of solvent (in expand-cell)
     H2O           -0.001737 e
     K+            20.070027 e
     OH-          -21.056278 e
     Total         -0.987987 e

     Chemical potential of solvation (in expand-cell)
     H2O        GaussFluct  -0.406412E+02 kcal/mol
     K+         GaussFluct  -0.224151E+04 kcal/mol
     OH-        GaussFluct   0.222147E+04 kcal/mol
     Total      GaussFluct  -0.606813E+02 kcal/mol


     total cpu time spent up to now is      367.2 secs

     total energy              =     -34.86766594 Ry
     estimated scf accuracy    <       1.59025376 Ry

     iteration #  3     ecut=    40.00 Ry     beta= 0.10
     RMM-DIIS diagonalization
     ethr =  1.00E-02,  avg # of iterations =  2.7

     negative rho (up, down):  3.788E-03 0.000E+00

     Laue-RISM Calculation

     convergence threshold    = 1.000E-04
     iter. #     1  RMS(g-h-1)= 6.120E-03  nbox=  0
     iter. #    11  RMS(g-h-1)= 6.925E-04  nbox= 10
     iter. #    21  RMS(g-h-1)= 3.232E-04  nbox= 10
     iter. #    31  RMS(g-h-1)= 1.967E-04  nbox= 10
     iter. #    41  RMS(g-h-1)= 1.485E-04  nbox= 10
     iter. #    49  RMS(g-h-1)= 9.345E-05  nbox= 10

     End of Laue-RISM calculation


     convergence has been achieved in    49 iterations


     solvent charge   -0.92309, renormalised to   -1.00000

     Total number of solvent (in expand-cell)
     H2O         1129.351021
     K+            20.072520
     OH-           21.025260

     Total charge of solvent (in expand-cell)
     H2O            0.006217 e
     K+            20.072520 e
     OH-          -21.001823 e
     Total         -0.923087 e

     Chemical potential of solvation (in expand-cell)
     H2O        GaussFluct  -0.381707E+02 kcal/mol
     K+         GaussFluct  -0.224183E+04 kcal/mol
     OH-        GaussFluct   0.222158E+04 kcal/mol
     Total      GaussFluct  -0.584217E+02 kcal/mol


     total cpu time spent up to now is      401.5 secs

     total energy              =     -35.23622315 Ry
     estimated scf accuracy    <       0.07836794 Ry

     iteration #  4     ecut=    40.00 Ry     beta= 0.10
     RMM-DIIS diagonalization
     ethr =  9.80E-04,  avg # of iterations =  3.0

     negative rho (up, down):  7.505E-03 0.000E+00

     Laue-RISM Calculation

     convergence threshold    = 1.000E-04
     iter. #     1  RMS(g-h-1)= 7.055E-03  nbox=  0
     iter. #    11  RMS(g-h-1)= 9.483E-04  nbox= 10
     iter. #    21  RMS(g-h-1)= 4.031E-04  nbox= 10
     iter. #    31  RMS(g-h-1)= 2.466E-04  nbox= 10
     iter. #    41  RMS(g-h-1)= 1.787E-04  nbox= 10
     iter. #    51  RMS(g-h-1)= 1.466E-04  nbox= 10
     iter. #    61  RMS(g-h-1)= 1.201E-04  nbox=  4
     iter. #    66  RMS(g-h-1)= 9.907E-05  nbox=  9

     End of Laue-RISM calculation


     convergence has been achieved in    66 iterations


     solvent charge   -1.06688, renormalised to   -1.00000

     Total number of solvent (in expand-cell)
     H2O         1129.479141
     K+            20.067542
     OH-           21.088275

     Total charge of solvent (in expand-cell)
     H2O           -0.004089 e
     K+            20.067542 e
     OH-          -21.130335 e
     Total         -1.066882 e

     Chemical potential of solvation (in expand-cell)
     H2O        GaussFluct  -0.416435E+02 kcal/mol
     K+         GaussFluct  -0.224075E+04 kcal/mol
     OH-        GaussFluct   0.222111E+04 kcal/mol
     Total      GaussFluct  -0.612783E+02 kcal/mol


     total cpu time spent up to now is      445.7 secs

     total energy              =     -35.24632919 Ry
     estimated scf accuracy    <       0.12296453 Ry

     iteration #  5     ecut=    40.00 Ry     beta= 0.10
     Davidson diagonalization with overlap
     ethr =  9.80E-04,  avg # of iterations =  6.0

     negative rho (up, down):  8.257E-03 0.000E+00

     Laue-RISM Calculation

     convergence threshold    = 5.446E-05
     iter. #     1  RMS(g-h-1)= 4.307E-03  nbox=  0
     iter. #    11  RMS(g-h-1)= 5.283E-04  nbox= 10
     iter. #    21  RMS(g-h-1)= 2.434E-04  nbox= 10
     iter. #    31  RMS(g-h-1)= 1.870E-04  nbox= 10
     iter. #    41  RMS(g-h-1)= 1.587E-04  nbox= 10
     iter. #    51  RMS(g-h-1)= 1.071E-04  nbox= 10
     iter. #    61  RMS(g-h-1)= 8.169E-05  nbox= 10
     iter. #    70  RMS(g-h-1)= 5.311E-05  nbox= 10

     End of Laue-RISM calculation


     convergence has been achieved in    70 iterations


     solvent charge   -0.99594, renormalised to   -1.00000

     Total number of solvent (in expand-cell)
     H2O         1129.571700
     K+            20.078179
     OH-           21.053759

     Total charge of solvent (in expand-cell)
     H2O           -0.000857 e
     K+            20.078179 e
     OH-          -21.073266 e
     Total         -0.995945 e

     Chemical potential of solvation (in expand-cell)
     H2O        GaussFluct  -0.417802E+02 kcal/mol
     K+         GaussFluct  -0.224134E+04 kcal/mol
     OH-        GaussFluct   0.221990E+04 kcal/mol
     Total      GaussFluct  -0.632166E+02 kcal/mol


     total cpu time spent up to now is      492.0 secs

     total energy              =     -35.22495822 Ry
     estimated scf accuracy    <       0.03865426 Ry

     iteration #  6     ecut=    40.00 Ry     beta= 0.10
     RMM-DIIS diagonalization
     ethr =  4.83E-04,  avg # of iterations =  3.0

     negative rho (up, down):  7.634E-03 0.000E+00

     Laue-RISM Calculation

     convergence threshold    = 8.909E-06
     iter. #     1  RMS(g-h-1)= 3.609E-04  nbox=  0
     iter. #    11  RMS(g-h-1)= 5.824E-05  nbox= 10
     iter. #    21  RMS(g-h-1)= 3.436E-05  nbox= 10
     iter. #    31  RMS(g-h-1)= 2.869E-05  nbox= 10
     iter. #    41  RMS(g-h-1)= 2.376E-05  nbox= 10
     iter. #    51  RMS(g-h-1)= 2.058E-05  nbox= 10
     iter. #    61  RMS(g-h-1)= 1.661E-05  nbox=  5
     iter. #    71  RMS(g-h-1)= 1.342E-05  nbox= 10
     iter. #    81  RMS(g-h-1)= 1.167E-05  nbox=  5
     iter. #    91  RMS(g-h-1)= 9.896E-06  nbox= 10
     iter. #   101  RMS(g-h-1)= 8.947E-06  nbox=  9
     iter. #   102  RMS(g-h-1)= 8.838E-06  nbox= 10

     End of Laue-RISM calculation


     convergence has been achieved in   102 iterations


     solvent charge   -0.99868, renormalised to   -1.00000

     Total number of solvent (in expand-cell)
     H2O         1129.556714
     K+            20.077017
     OH-           21.075340

     Total charge of solvent (in expand-cell)
     H2O           -0.000156 e
     K+            20.077017 e
     OH-          -21.075546 e
     Total         -0.998685 e

     Chemical potential of solvation (in expand-cell)
     H2O        GaussFluct  -0.420183E+02 kcal/mol
     K+         GaussFluct  -0.224078E+04 kcal/mol
     OH-        GaussFluct   0.221940E+04 kcal/mol
     Total      GaussFluct  -0.633991E+02 kcal/mol


     total cpu time spent up to now is      560.0 secs

     total energy              =     -35.23867414 Ry
     estimated scf accuracy    <       0.00510940 Ry

     iteration #  7     ecut=    40.00 Ry     beta= 0.10
     RMM-DIIS diagonalization
     ethr =  6.39E-05,  avg # of iterations =  3.3

     negative rho (up, down):  7.712E-03 0.000E+00

     Laue-RISM Calculation

     convergence threshold    = 7.976E-06
     iter. #     1  RMS(g-h-1)= 5.364E-04  nbox=  0
     iter. #    11  RMS(g-h-1)= 3.763E-05  nbox= 10
     iter. #    21  RMS(g-h-1)= 1.656E-05  nbox= 10
     iter. #    31  RMS(g-h-1)= 1.276E-05  nbox= 10
     iter. #    41  RMS(g-h-1)= 1.056E-05  nbox=  3
     iter. #    51  RMS(g-h-1)= 8.864E-06  nbox= 10
     iter. #    61  RMS(g-h-1)= 8.399E-06  nbox=  7
     iter. #    71  RMS(g-h-1)= 7.976E-06  nbox= 10

     End of Laue-RISM calculation


     convergence has been achieved in    71 iterations


     solvent charge   -0.99993, renormalised to   -1.00000

     Total number of solvent (in expand-cell)
     H2O         1129.579497
     K+            20.077375
     OH-           21.077317

     Total charge of solvent (in expand-cell)
     H2O           -0.000481 e
     K+            20.077375 e
     OH-          -21.076823 e
     Total         -0.999929 e

     Chemical potential of solvation (in expand-cell)
     H2O        GaussFluct  -0.423038E+02 kcal/mol
     K+         GaussFluct  -0.224074E+04 kcal/mol
     OH-        GaussFluct   0.221919E+04 kcal/mol
     Total      GaussFluct  -0.638538E+02 kcal/mol


     total cpu time spent up to now is      606.2 secs

     total energy              =     -35.23690320 Ry
     estimated scf accuracy    <       0.00451552 Ry

     iteration #  8     ecut=    40.00 Ry     beta= 0.10
     RMM-DIIS diagonalization
     ethr =  5.64E-05,  avg # of iterations =  3.0

     negative rho (up, down):  7.312E-03 0.000E+00

     Laue-RISM Calculation

     convergence threshold    = 1.000E-06
     iter. #     1  RMS(g-h-1)= 2.166E-05  nbox=  0
     iter. #    11  RMS(g-h-1)= 8.117E-06  nbox= 10
     iter. #    21  RMS(g-h-1)= 7.722E-06  nbox= 10
     iter. #    31  RMS(g-h-1)= 7.457E-06  nbox= 10
     iter. #    41  RMS(g-h-1)= 7.194E-06  nbox=  5
     iter. #    51  RMS(g-h-1)= 6.864E-06  nbox= 10
     iter. #    61  RMS(g-h-1)= 6.574E-06  nbox=  9
     iter. #    71  RMS(g-h-1)= 6.483E-06  nbox=  3
     iter. #    81  RMS(g-h-1)= 6.307E-06  nbox= 10
     iter. #    91  RMS(g-h-1)= 6.101E-06  nbox=  7
     iter. #   101  RMS(g-h-1)= 5.842E-06  nbox= 10
     iter. #   111  RMS(g-h-1)= 5.694E-06  nbox= 10
     iter. #   121  RMS(g-h-1)= 5.565E-06  nbox=  5
     iter. #   131  RMS(g-h-1)= 5.464E-06  nbox= 10
     iter. #   141  RMS(g-h-1)= 5.233E-06  nbox=  9
     iter. #   151  RMS(g-h-1)= 5.106E-06  nbox=  3
     iter. #   161  RMS(g-h-1)= 4.922E-06  nbox= 10
     iter. #   171  RMS(g-h-1)= 4.844E-06  nbox=  7
     iter. #   181  RMS(g-h-1)= 4.779E-06  nbox= 10
     iter. #   191  RMS(g-h-1)= 4.642E-06  nbox= 10
     iter. #   201  RMS(g-h-1)= 4.568E-06  nbox=  5
     iter. #   211  RMS(g-h-1)= 4.473E-06  nbox= 10
     iter. #   221  RMS(g-h-1)= 4.361E-06  nbox=  9
     iter. #   231  RMS(g-h-1)= 4.323E-06  nbox=  3
     iter. #   241  RMS(g-h-1)= 4.190E-06  nbox= 10
     iter. #   251  RMS(g-h-1)= 4.082E-06  nbox=  7
     iter. #   261  RMS(g-h-1)= 3.966E-06  nbox= 10
     iter. #   271  RMS(g-h-1)= 3.894E-06  nbox= 10
     iter. #   281  RMS(g-h-1)= 3.811E-06  nbox=  5
     iter. #   291  RMS(g-h-1)= 3.727E-06  nbox= 10
     iter. #   301  RMS(g-h-1)= 3.669E-06  nbox=  9
     iter. #   311  RMS(g-h-1)= 3.578E-06  nbox=  3
     iter. #   321  RMS(g-h-1)= 3.465E-06  nbox= 10
     iter. #   331  RMS(g-h-1)= 3.397E-06  nbox=  7
     iter. #   341  RMS(g-h-1)= 3.304E-06  nbox= 10
     iter. #   351  RMS(g-h-1)= 3.181E-06  nbox= 10
     iter. #   361  RMS(g-h-1)= 3.143E-06  nbox=  5
     iter. #   371  RMS(g-h-1)= 3.106E-06  nbox= 10
     iter. #   381  RMS(g-h-1)= 3.067E-06  nbox=  9
     iter. #   391  RMS(g-h-1)= 3.053E-06  nbox=  3
     iter. #   401  RMS(g-h-1)= 3.012E-06  nbox= 10
     iter. #   411  RMS(g-h-1)= 2.961E-06  nbox=  7
     iter. #   421  RMS(g-h-1)= 2.927E-06  nbox= 10
     iter. #   431  RMS(g-h-1)= 2.853E-06  nbox= 10
     iter. #   441  RMS(g-h-1)= 2.831E-06  nbox=  5
     iter. #   451  RMS(g-h-1)= 2.788E-06  nbox= 10
     iter. #   461  RMS(g-h-1)= 2.740E-06  nbox=  9
     iter. #   471  RMS(g-h-1)= 2.686E-06  nbox=  3
     iter. #   481  RMS(g-h-1)= 2.633E-06  nbox= 10
     iter. #   491  RMS(g-h-1)= 2.594E-06  nbox=  7
     iter. #   501  RMS(g-h-1)= 2.552E-06  nbox= 10
     iter. #   511  RMS(g-h-1)= 2.507E-06  nbox= 10
     iter. #   521  RMS(g-h-1)= 2.480E-06  nbox=  5
     iter. #   531  RMS(g-h-1)= 2.583E-06  nbox= 10
     iter. #   541  RMS(g-h-1)= 2.474E-06  nbox=  9
     iter. #   551  RMS(g-h-1)= 2.389E-06  nbox=  3
     iter. #   561  RMS(g-h-1)= 2.361E-06  nbox= 10
     iter. #   571  RMS(g-h-1)= 2.353E-06  nbox=  7
     iter. #   581  RMS(g-h-1)= 2.342E-06  nbox= 10
     iter. #   591  RMS(g-h-1)= 2.335E-06  nbox= 10
     iter. #   601  RMS(g-h-1)= 2.304E-06  nbox=  5
     iter. #   611  RMS(g-h-1)= 2.280E-06  nbox= 10
     iter. #   621  RMS(g-h-1)= 2.260E-06  nbox=  9
     iter. #   631  RMS(g-h-1)= 2.223E-06  nbox=  3
     iter. #   641  RMS(g-h-1)= 2.199E-06  nbox= 10
     iter. #   651  RMS(g-h-1)= 2.192E-06  nbox=  7
     iter. #   661  RMS(g-h-1)= 2.181E-06  nbox= 10
     iter. #   671  RMS(g-h-1)= 2.152E-06  nbox= 10
     iter. #   681  RMS(g-h-1)= 2.147E-06  nbox=  5
     iter. #   691  RMS(g-h-1)= 2.130E-06  nbox= 10
     iter. #   701  RMS(g-h-1)= 2.120E-06  nbox=  9
     iter. #   711  RMS(g-h-1)= 2.103E-06  nbox=  3
     iter. #   721  RMS(g-h-1)= 2.093E-06  nbox= 10
     iter. #   731  RMS(g-h-1)= 2.080E-06  nbox=  7
     iter. #   741  RMS(g-h-1)= 2.017E-06  nbox= 10
     iter. #   751  RMS(g-h-1)= 1.980E-06  nbox= 10
     iter. #   761  RMS(g-h-1)= 1.959E-06  nbox=  5
     iter. #   771  RMS(g-h-1)= 1.939E-06  nbox= 10
     iter. #   781  RMS(g-h-1)= 1.929E-06  nbox=  9
     iter. #   791  RMS(g-h-1)= 1.926E-06  nbox=  3
     iter. #   801  RMS(g-h-1)= 1.921E-06  nbox= 10
     iter. #   811  RMS(g-h-1)= 1.913E-06  nbox=  7
     iter. #   821  RMS(g-h-1)= 1.894E-06  nbox= 10
     iter. #   831  RMS(g-h-1)= 1.868E-06  nbox= 10
     iter. #   841  RMS(g-h-1)= 1.846E-06  nbox=  5
     iter. #   851  RMS(g-h-1)= 1.861E-06  nbox= 10
     iter. #   861  RMS(g-h-1)= 1.824E-06  nbox=  9
     iter. #   871  RMS(g-h-1)= 1.812E-06  nbox=  3
     iter. #   881  RMS(g-h-1)= 1.788E-06  nbox= 10
     iter. #   891  RMS(g-h-1)= 1.768E-06  nbox=  7
     iter. #   901  RMS(g-h-1)= 1.745E-06  nbox= 10
     iter. #   911  RMS(g-h-1)= 1.733E-06  nbox= 10
     iter. #   921  RMS(g-h-1)= 1.723E-06  nbox=  5
     iter. #   931  RMS(g-h-1)= 1.715E-06  nbox= 10
     iter. #   941  RMS(g-h-1)= 1.709E-06  nbox=  9
     iter. #   951  RMS(g-h-1)= 1.699E-06  nbox=  3
     iter. #   961  RMS(g-h-1)= 1.690E-06  nbox= 10
     iter. #   971  RMS(g-h-1)= 1.683E-06  nbox=  7
     iter. #   981  RMS(g-h-1)= 1.671E-06  nbox= 10
     iter. #   991  RMS(g-h-1)= 1.660E-06  nbox= 10
     iter. #  1001  RMS(g-h-1)= 1.656E-06  nbox=  5
     iter. #  1011  RMS(g-h-1)= 1.653E-06  nbox= 10
     iter. #  1021  RMS(g-h-1)= 1.648E-06  nbox=  9
     iter. #  1031  RMS(g-h-1)= 1.637E-06  nbox=  3
     iter. #  1041  RMS(g-h-1)= 1.614E-06  nbox= 10
     iter. #  1051  RMS(g-h-1)= 1.598E-06  nbox=  7
     iter. #  1061  RMS(g-h-1)= 1.588E-06  nbox= 10
     iter. #  1071  RMS(g-h-1)= 1.564E-06  nbox= 10
     iter. #  1081  RMS(g-h-1)= 1.550E-06  nbox=  5
     iter. #  1091  RMS(g-h-1)= 1.538E-06  nbox= 10
     iter. #  1101  RMS(g-h-1)= 1.517E-06  nbox=  9
     iter. #  1111  RMS(g-h-1)= 1.504E-06  nbox=  3
     iter. #  1121  RMS(g-h-1)= 1.499E-06  nbox= 10
     iter. #  1131  RMS(g-h-1)= 1.497E-06  nbox=  7
     iter. #  1141  RMS(g-h-1)= 1.491E-06  nbox= 10
     iter. #  1151  RMS(g-h-1)= 1.480E-06  nbox= 10
     iter. #  1161  RMS(g-h-1)= 1.472E-06  nbox=  5
     iter. #  1171  RMS(g-h-1)= 1.467E-06  nbox= 10
     iter. #  1181  RMS(g-h-1)= 1.459E-06  nbox=  9
     iter. #  1191  RMS(g-h-1)= 1.448E-06  nbox=  3
     iter. #  1201  RMS(g-h-1)= 1.439E-06  nbox= 10
     iter. #  1211  RMS(g-h-1)= 1.437E-06  nbox=  7
     iter. #  1221  RMS(g-h-1)= 1.429E-06  nbox= 10
     iter. #  1231  RMS(g-h-1)= 1.421E-06  nbox= 10
     iter. #  1241  RMS(g-h-1)= 1.403E-06  nbox=  5
     iter. #  1251  RMS(g-h-1)= 1.395E-06  nbox= 10
     iter. #  1261  RMS(g-h-1)= 1.393E-06  nbox=  9
     iter. #  1271  RMS(g-h-1)= 1.390E-06  nbox=  3
     iter. #  1281  RMS(g-h-1)= 1.384E-06  nbox= 10
     iter. #  1291  RMS(g-h-1)= 1.377E-06  nbox=  7
     iter. #  1301  RMS(g-h-1)= 1.370E-06  nbox= 10
     iter. #  1311  RMS(g-h-1)= 1.358E-06  nbox= 10
     iter. #  1321  RMS(g-h-1)= 1.349E-06  nbox=  5
     iter. #  1331  RMS(g-h-1)= 1.338E-06  nbox= 10
     iter. #  1341  RMS(g-h-1)= 1.328E-06  nbox=  9
     iter. #  1351  RMS(g-h-1)= 1.317E-06  nbox=  3
     iter. #  1361  RMS(g-h-1)= 1.308E-06  nbox= 10
     iter. #  1371  RMS(g-h-1)= 1.303E-06  nbox=  7
     iter. #  1381  RMS(g-h-1)= 1.299E-06  nbox= 10
     iter. #  1391  RMS(g-h-1)= 1.295E-06  nbox= 10
     iter. #  1401  RMS(g-h-1)= 1.293E-06  nbox=  5
     iter. #  1411  RMS(g-h-1)= 1.291E-06  nbox= 10
     iter. #  1421  RMS(g-h-1)= 1.287E-06  nbox=  9
     iter. #  1431  RMS(g-h-1)= 1.281E-06  nbox=  3
     iter. #  1441  RMS(g-h-1)= 1.274E-06  nbox= 10
     iter. #  1451  RMS(g-h-1)= 1.265E-06  nbox=  7
     iter. #  1461  RMS(g-h-1)= 1.256E-06  nbox= 10
     iter. #  1471  RMS(g-h-1)= 1.242E-06  nbox= 10
     iter. #  1481  RMS(g-h-1)= 1.238E-06  nbox=  5
     iter. #  1491  RMS(g-h-1)= 1.247E-06  nbox= 10
     iter. #  1501  RMS(g-h-1)= 1.273E-06  nbox=  9
     iter. #  1511  RMS(g-h-1)= 1.216E-06  nbox=  3
     iter. #  1521  RMS(g-h-1)= 1.198E-06  nbox= 10
     iter. #  1531  RMS(g-h-1)= 1.198E-06  nbox=  7
     iter. #  1541  RMS(g-h-1)= 1.194E-06  nbox= 10
     iter. #  1551  RMS(g-h-1)= 1.189E-06  nbox= 10
     iter. #  1561  RMS(g-h-1)= 1.183E-06  nbox=  5
     iter. #  1571  RMS(g-h-1)= 1.175E-06  nbox= 10
     iter. #  1581  RMS(g-h-1)= 1.168E-06  nbox=  9
     iter. #  1591  RMS(g-h-1)= 1.164E-06  nbox=  3
     iter. #  1601  RMS(g-h-1)= 1.157E-06  nbox= 10
     iter. #  1611  RMS(g-h-1)= 1.153E-06  nbox=  7
     iter. #  1621  RMS(g-h-1)= 1.145E-06  nbox= 10
     iter. #  1631  RMS(g-h-1)= 1.138E-06  nbox= 10
     iter. #  1641  RMS(g-h-1)= 1.133E-06  nbox=  5
     iter. #  1651  RMS(g-h-1)= 1.125E-06  nbox= 10
     iter. #  1661  RMS(g-h-1)= 1.112E-06  nbox=  9
     iter. #  1671  RMS(g-h-1)= 1.101E-06  nbox=  3
     iter. #  1681  RMS(g-h-1)= 1.088E-06  nbox= 10
     iter. #  1691  RMS(g-h-1)= 1.083E-06  nbox=  7
     iter. #  1701  RMS(g-h-1)= 1.078E-06  nbox= 10
     iter. #  1711  RMS(g-h-1)= 1.074E-06  nbox= 10
     iter. #  1721  RMS(g-h-1)= 1.071E-06  nbox=  5
     iter. #  1731  RMS(g-h-1)= 1.068E-06  nbox= 10
     iter. #  1741  RMS(g-h-1)= 1.065E-06  nbox=  9
     iter. #  1751  RMS(g-h-1)= 1.061E-06  nbox=  3
     iter. #  1761  RMS(g-h-1)= 1.052E-06  nbox= 10
     iter. #  1771  RMS(g-h-1)= 1.046E-06  nbox=  7
     iter. #  1781  RMS(g-h-1)= 1.039E-06  nbox= 10
     iter. #  1791  RMS(g-h-1)= 1.029E-06  nbox= 10
     iter. #  1801  RMS(g-h-1)= 1.023E-06  nbox=  5
     iter. #  1811  RMS(g-h-1)= 1.016E-06  nbox= 10
     iter. #  1821  RMS(g-h-1)= 1.013E-06  nbox=  9
     iter. #  1831  RMS(g-h-1)= 1.011E-06  nbox=  3
     iter. #  1841  RMS(g-h-1)= 1.007E-06  nbox= 10
     iter. #  1851  RMS(g-h-1)= 1.004E-06  nbox=  7
     iter. #  1861  RMS(g-h-1)= 1.001E-06  nbox= 10
     iter. #  1867  RMS(g-h-1)= 9.998E-07  nbox=  7

     End of Laue-RISM calculation


     convergence has been achieved in  1867 iterations


     solvent charge   -1.00043, renormalised to   -1.00000

     Total number of solvent (in expand-cell)
     H2O         1129.575659
     K+            20.077352
     OH-           21.077353

     Total charge of solvent (in expand-cell)
     H2O           -0.000430 e
     K+            20.077352 e
     OH-          -21.077353 e
     Total         -1.000431 e

     Chemical potential of solvation (in expand-cell)
     H2O        GaussFluct  -0.422692E+02 kcal/mol
     K+         GaussFluct  -0.224074E+04 kcal/mol
     OH-        GaussFluct   0.221922E+04 kcal/mol
     Total      GaussFluct  -0.637916E+02 kcal/mol


     total cpu time spent up to now is     1717.4 secs

     total energy              =     -35.23735118 Ry
     estimated scf accuracy    <       0.00019836 Ry

     iteration #  9     ecut=    40.00 Ry     beta= 0.10
     RMM-DIIS diagonalization
     ethr =  2.48E-06,  avg # of iterations =  3.7

     negative rho (up, down):  7.078E-03 0.000E+00

     Laue-RISM Calculation

     convergence threshold    = 1.000E-06
     iter. #     1  RMS(g-h-1)= 4.643E-05  nbox=  0
     iter. #    11  RMS(g-h-1)= 5.028E-06  nbox= 10
     iter. #    21  RMS(g-h-1)= 1.966E-06  nbox= 10
     iter. #    31  RMS(g-h-1)= 1.648E-06  nbox= 10
     iter. #    41  RMS(g-h-1)= 1.279E-06  nbox=  5
     iter. #    51  RMS(g-h-1)= 1.108E-06  nbox= 10
     iter. #    61  RMS(g-h-1)= 1.047E-06  nbox=  6
     iter. #    71  RMS(g-h-1)= 1.025E-06  nbox= 10
     iter. #    81  RMS(g-h-1)= 1.007E-06  nbox= 10
     iter. #    91  RMS(g-h-1)= 1.001E-06  nbox=  4
     iter. #    93  RMS(g-h-1)= 9.996E-07  nbox=  6

     End of Laue-RISM calculation


     convergence has been achieved in    93 iterations


     solvent charge   -1.00045, renormalised to   -1.00000

     Total number of solvent (in expand-cell)
     H2O         1129.575799
     K+            20.077458
     OH-           21.077460

     Total charge of solvent (in expand-cell)
     H2O           -0.000429 e
     K+            20.077458 e
     OH-          -21.077476 e
     Total         -1.000447 e

     Chemical potential of solvation (in expand-cell)
     H2O        GaussFluct  -0.422633E+02 kcal/mol
     K+         GaussFluct  -0.224074E+04 kcal/mol
     OH-        GaussFluct   0.221922E+04 kcal/mol
     Total      GaussFluct  -0.637891E+02 kcal/mol


     total cpu time spent up to now is     1779.2 secs

     total energy              =     -35.23735612 Ry
     estimated scf accuracy    <       0.00012681 Ry

     iteration # 10     ecut=    40.00 Ry     beta= 0.10
     Davidson diagonalization with overlap
     c_bands:  3 eigenvalues not converged
     ethr =  1.59E-06,  avg # of iterations = 20.0

     negative rho (up, down):  7.023E-03 0.000E+00

     Laue-RISM Calculation

     convergence threshold    = 1.000E-06
     iter. #     1  RMS(g-h-1)= 4.294E-04  nbox=  0
     iter. #    11  RMS(g-h-1)= 4.744E-05  nbox= 10
     iter. #    21  RMS(g-h-1)= 1.991E-05  nbox= 10
     iter. #    31  RMS(g-h-1)= 1.455E-05  nbox= 10
     iter. #    41  RMS(g-h-1)= 1.129E-05  nbox= 10
     iter. #    51  RMS(g-h-1)= 7.590E-06  nbox= 10
     iter. #    61  RMS(g-h-1)= 6.614E-06  nbox= 10
     iter. #    71  RMS(g-h-1)= 5.953E-06  nbox= 10
     iter. #    81  RMS(g-h-1)= 4.442E-06  nbox=  7
     iter. #    91  RMS(g-h-1)= 3.340E-06  nbox= 10
     iter. #   101  RMS(g-h-1)= 2.017E-06  nbox= 10
     iter. #   111  RMS(g-h-1)= 1.500E-06  nbox= 10
     iter. #   121  RMS(g-h-1)= 1.378E-06  nbox= 10
     iter. #   131  RMS(g-h-1)= 1.185E-06  nbox= 10
     iter. #   141  RMS(g-h-1)= 1.159E-06  nbox=  4
     iter. #   151  RMS(g-h-1)= 1.117E-06  nbox= 10
     iter. #   161  RMS(g-h-1)= 1.091E-06  nbox=  8
     iter. #   171  RMS(g-h-1)= 1.079E-06  nbox=  2
     iter. #   181  RMS(g-h-1)= 1.064E-06  nbox= 10
     iter. #   191  RMS(g-h-1)= 1.056E-06  nbox=  6
     iter. #   201  RMS(g-h-1)= 1.046E-06  nbox= 10
     iter. #   211  RMS(g-h-1)= 1.037E-06  nbox= 10
     iter. #   221  RMS(g-h-1)= 1.031E-06  nbox=  4
     iter. #   231  RMS(g-h-1)= 1.025E-06  nbox= 10
     iter. #   241  RMS(g-h-1)= 1.022E-06  nbox=  8
     iter. #   251  RMS(g-h-1)= 1.021E-06  nbox=  2
     iter. #   261  RMS(g-h-1)= 1.019E-06  nbox= 10
     iter. #   271  RMS(g-h-1)= 1.017E-06  nbox=  6
     iter. #   281  RMS(g-h-1)= 1.013E-06  nbox= 10
     iter. #   291  RMS(g-h-1)= 1.007E-06  nbox= 10
     iter. #   301  RMS(g-h-1)= 1.002E-06  nbox=  4
     iter. #   305  RMS(g-h-1)= 9.995E-07  nbox=  8

     End of Laue-RISM calculation


     convergence has been achieved in   305 iterations


     solvent charge   -1.00038, renormalised to   -1.00000

     Total number of solvent (in expand-cell)
     H2O         1129.595089
     K+            20.077137
     OH-           21.077109

     Total charge of solvent (in expand-cell)
     H2O           -0.000430 e
     K+            20.077137 e
     OH-          -21.077092 e
     Total         -1.000384 e

     Chemical potential of solvation (in expand-cell)
     H2O        GaussFluct  -0.424887E+02 kcal/mol
     K+         GaussFluct  -0.224074E+04 kcal/mol
     OH-        GaussFluct   0.221913E+04 kcal/mol
     Total      GaussFluct  -0.641042E+02 kcal/mol


     total cpu time spent up to now is     1965.0 secs

     total energy              =     -35.23738487 Ry
     estimated scf accuracy    <       0.00007445 Ry

     iteration # 11     ecut=    40.00 Ry     beta= 0.10
     RMM-DIIS diagonalization
     ethr =  9.31E-07,  avg # of iterations =  3.1

     negative rho (up, down):  6.916E-03 0.000E+00

     Laue-RISM Calculation

     convergence threshold    = 1.148E-06
     iter. #     1  RMS(g-h-1)= 7.099E-05  nbox=  0
     iter. #    11  RMS(g-h-1)= 7.345E-06  nbox= 10
     iter. #    21  RMS(g-h-1)= 2.728E-06  nbox= 10
     iter. #    31  RMS(g-h-1)= 2.097E-06  nbox= 10
     iter. #    41  RMS(g-h-1)= 1.515E-06  nbox= 10
     iter. #    51  RMS(g-h-1)= 1.289E-06  nbox=  4
     iter. #    61  RMS(g-h-1)= 1.157E-06  nbox= 10
     iter. #    63  RMS(g-h-1)= 1.133E-06  nbox= 10

     End of Laue-RISM calculation


     convergence has been achieved in    63 iterations


     solvent charge   -1.00065, renormalised to   -1.00000

     Total number of solvent (in expand-cell)
     H2O         1129.599837
     K+            20.077059
     OH-           21.077111

     Total charge of solvent (in expand-cell)
     H2O           -0.000414 e
     K+            20.077059 e
     OH-          -21.077297 e
     Total         -1.000652 e

     Chemical potential of solvation (in expand-cell)
     H2O        GaussFluct  -0.425547E+02 kcal/mol
     K+         GaussFluct  -0.224074E+04 kcal/mol
     OH-        GaussFluct   0.221910E+04 kcal/mol
     Total      GaussFluct  -0.641945E+02 kcal/mol


     total cpu time spent up to now is     2007.6 secs

     total energy              =     -35.23747241 Ry
     estimated scf accuracy    <       0.00051714 Ry

     iteration # 12     ecut=    40.00 Ry     beta= 0.10
     RMM-DIIS diagonalization
     ethr =  9.31E-07,  avg # of iterations =  2.9

     negative rho (up, down):  6.831E-03 0.000E+00

     Laue-RISM Calculation

     convergence threshold    = 1.000E-06
     iter. #     1  RMS(g-h-1)= 6.350E-05  nbox=  0
     iter. #    11  RMS(g-h-1)= 6.671E-06  nbox= 10
     iter. #    21  RMS(g-h-1)= 2.699E-06  nbox= 10
     iter. #    31  RMS(g-h-1)= 2.163E-06  nbox= 10
     iter. #    41  RMS(g-h-1)= 1.626E-06  nbox= 10
     iter. #    51  RMS(g-h-1)= 1.497E-06  nbox= 10
     iter. #    61  RMS(g-h-1)= 1.173E-06  nbox= 10
     iter. #    71  RMS(g-h-1)= 1.107E-06  nbox=  4
     iter. #    81  RMS(g-h-1)= 1.024E-06  nbox= 10
     iter. #    91  RMS(g-h-1)= 1.009E-06  nbox=  8
     iter. #   101  RMS(g-h-1)= 1.006E-06  nbox=  2
     iter. #   111  RMS(g-h-1)= 1.003E-06  nbox= 10
     iter. #   121  RMS(g-h-1)= 1.000E-06  nbox=  6
     iter. #   123  RMS(g-h-1)= 9.996E-07  nbox=  8

     End of Laue-RISM calculation


     convergence has been achieved in   123 iterations


     solvent charge   -1.00048, renormalised to   -1.00000

     Total number of solvent (in expand-cell)
     H2O         1129.599675
     K+            20.077102
     OH-           21.077126

     Total charge of solvent (in expand-cell)
     H2O           -0.000433 e
     K+            20.077102 e
     OH-          -21.077148 e
     Total         -1.000479 e

     Chemical potential of solvation (in expand-cell)
     H2O        GaussFluct  -0.425530E+02 kcal/mol
     K+         GaussFluct  -0.224074E+04 kcal/mol
     OH-        GaussFluct   0.221910E+04 kcal/mol
     Total      GaussFluct  -0.641982E+02 kcal/mol


     total cpu time spent up to now is     2086.6 secs

     total energy              =     -35.23742187 Ry
     estimated scf accuracy    <       0.00034090 Ry

     iteration # 13     ecut=    40.00 Ry     beta= 0.10
     RMM-DIIS diagonalization
     ethr =  9.31E-07,  avg # of iterations =  2.5

     negative rho (up, down):  6.774E-03 0.000E+00

     Laue-RISM Calculation

     convergence threshold    = 1.000E-06
     iter. #     1  RMS(g-h-1)= 6.976E-05  nbox=  0
     iter. #    11  RMS(g-h-1)= 7.531E-06  nbox= 10
     iter. #    21  RMS(g-h-1)= 2.997E-06  nbox= 10
     iter. #    31  RMS(g-h-1)= 2.637E-06  nbox= 10
     iter. #    41  RMS(g-h-1)= 1.623E-06  nbox= 10
     iter. #    51  RMS(g-h-1)= 1.486E-06  nbox= 10
     iter. #    61  RMS(g-h-1)= 1.282E-06  nbox=  6
     iter. #    71  RMS(g-h-1)= 1.116E-06  nbox= 10
     iter. #    81  RMS(g-h-1)= 1.026E-06  nbox= 10
     iter. #    91  RMS(g-h-1)= 1.006E-06  nbox=  4
     iter. #    96  RMS(g-h-1)= 9.995E-07  nbox=  9

     End of Laue-RISM calculation


     convergence has been achieved in    96 iterations


     solvent charge   -1.00050, renormalised to   -1.00000

     Total number of solvent (in expand-cell)
     H2O         1129.599280
     K+            20.077142
     OH-           21.077158

     Total charge of solvent (in expand-cell)
     H2O           -0.000435 e
     K+            20.077142 e
     OH-          -21.077209 e
     Total         -1.000502 e

     Chemical potential of solvation (in expand-cell)
     H2O        GaussFluct  -0.425495E+02 kcal/mol
     K+         GaussFluct  -0.224074E+04 kcal/mol
     OH-        GaussFluct   0.221910E+04 kcal/mol
     Total      GaussFluct  -0.641932E+02 kcal/mol


     total cpu time spent up to now is     2148.1 secs

     total energy              =     -35.23738861 Ry
     estimated scf accuracy    <       0.00018259 Ry

     iteration # 14     ecut=    40.00 Ry     beta= 0.10
     RMM-DIIS diagonalization
     ethr =  9.31E-07,  avg # of iterations =  2.6

     negative rho (up, down):  6.774E-03 0.000E+00

     Laue-RISM Calculation

     convergence threshold    = 1.000E-06
     iter. #     1  RMS(g-h-1)= 9.043E-06  nbox=  0
     iter. #    11  RMS(g-h-1)= 1.358E-06  nbox= 10
     iter. #    21  RMS(g-h-1)= 1.097E-06  nbox= 10
     iter. #    31  RMS(g-h-1)= 1.034E-06  nbox= 10
     iter. #    41  RMS(g-h-1)= 1.005E-06  nbox= 10
     iter. #    51  RMS(g-h-1)= 1.001E-06  nbox=  5
     iter. #    55  RMS(g-h-1)= 9.991E-07  nbox=  9

     End of Laue-RISM calculation


     convergence has been achieved in    55 iterations


     solvent charge   -1.00050, renormalised to   -1.00000

     Total number of solvent (in expand-cell)
     H2O         1129.599996
     K+            20.077135
     OH-           21.077158

     Total charge of solvent (in expand-cell)
     H2O           -0.000430 e
     K+            20.077135 e
     OH-          -21.077208 e
     Total         -1.000503 e

     Chemical potential of solvation (in expand-cell)
     H2O        GaussFluct  -0.425591E+02 kcal/mol
     K+         GaussFluct  -0.224074E+04 kcal/mol
     OH-        GaussFluct   0.221909E+04 kcal/mol
     Total      GaussFluct  -0.642074E+02 kcal/mol


     total cpu time spent up to now is     2185.0 secs

     total energy              =     -35.23739457 Ry
     estimated scf accuracy    <       0.00006700 Ry

     iteration # 15     ecut=    40.00 Ry     beta= 0.10
     Davidson diagonalization with overlap
     ethr =  8.38E-07,  avg # of iterations = 15.0

     negative rho (up, down):  6.789E-03 0.000E+00

     Laue-RISM Calculation

     convergence threshold    = 1.000E-06
     iter. #     1  RMS(g-h-1)= 1.345E-05  nbox=  0
     iter. #    11  RMS(g-h-1)= 1.685E-06  nbox= 10
     iter. #    21  RMS(g-h-1)= 1.160E-06  nbox= 10
     iter. #    31  RMS(g-h-1)= 1.103E-06  nbox= 10
     iter. #    41  RMS(g-h-1)= 1.025E-06  nbox= 10
     iter. #    51  RMS(g-h-1)= 1.014E-06  nbox=  5
     iter. #    61  RMS(g-h-1)= 1.002E-06  nbox= 10
     iter. #    63  RMS(g-h-1)= 9.998E-07  nbox= 10

     End of Laue-RISM calculation


     convergence has been achieved in    63 iterations


     solvent charge   -1.00051, renormalised to   -1.00000

     Total number of solvent (in expand-cell)
     H2O         1129.600162
     K+            20.077145
     OH-           21.077169

     Total charge of solvent (in expand-cell)
     H2O           -0.000433 e
     K+            20.077145 e
     OH-          -21.077220 e
     Total         -1.000507 e

     Chemical potential of solvation (in expand-cell)
     H2O        GaussFluct  -0.425618E+02 kcal/mol
     K+         GaussFluct  -0.224074E+04 kcal/mol
     OH-        GaussFluct   0.221909E+04 kcal/mol
     Total      GaussFluct  -0.642117E+02 kcal/mol


     total cpu time spent up to now is     2226.9 secs

     total energy              =     -35.23739049 Ry
     estimated scf accuracy    <       0.00005249 Ry

     iteration # 16     ecut=    40.00 Ry     beta= 0.10
     RMM-DIIS diagonalization
     ethr =  6.56E-07,  avg # of iterations =  2.5

     negative rho (up, down):  6.825E-03 0.000E+00

     Laue-RISM Calculation

     convergence threshold    = 1.000E-06
     iter. #     1  RMS(g-h-1)= 1.196E-05  nbox=  0
     iter. #    11  RMS(g-h-1)= 1.548E-06  nbox= 10
     iter. #    21  RMS(g-h-1)= 1.068E-06  nbox= 10
     iter. #    31  RMS(g-h-1)= 1.020E-06  nbox= 10
     iter. #    41  RMS(g-h-1)= 9.992E-07  nbox=  8

     End of Laue-RISM calculation


     convergence has been achieved in    41 iterations


     solvent charge   -1.00040, renormalised to   -1.00000

     Total number of solvent (in expand-cell)
     H2O         1129.601018
     K+            20.077148
     OH-           21.077116

     Total charge of solvent (in expand-cell)
     H2O           -0.000436 e
     K+            20.077148 e
     OH-          -21.077115 e
     Total         -1.000403 e

     Chemical potential of solvation (in expand-cell)
     H2O        GaussFluct  -0.425713E+02 kcal/mol
     K+         GaussFluct  -0.224074E+04 kcal/mol
     OH-        GaussFluct   0.221908E+04 kcal/mol
     Total      GaussFluct  -0.642287E+02 kcal/mol


     total cpu time spent up to now is     2255.6 secs

     total energy              =     -35.23739512 Ry
     estimated scf accuracy    <       0.00003907 Ry

     iteration # 17     ecut=    40.00 Ry     beta= 0.10
     RMM-DIIS diagonalization
     ethr =  4.88E-07,  avg # of iterations =  2.5

     negative rho (up, down):  6.850E-03 0.000E+00

     Laue-RISM Calculation

     convergence threshold    = 1.000E-06
     iter. #     1  RMS(g-h-1)= 8.452E-05  nbox=  0
     iter. #    11  RMS(g-h-1)= 9.537E-06  nbox= 10
     iter. #    21  RMS(g-h-1)= 3.485E-06  nbox= 10
     iter. #    31  RMS(g-h-1)= 2.704E-06  nbox= 10
     iter. #    41  RMS(g-h-1)= 1.853E-06  nbox= 10
     iter. #    51  RMS(g-h-1)= 1.606E-06  nbox= 10
     iter. #    61  RMS(g-h-1)= 1.436E-06  nbox=  6
     iter. #    71  RMS(g-h-1)= 1.132E-06  nbox= 10
     iter. #    81  RMS(g-h-1)= 1.029E-06  nbox= 10
     iter. #    91  RMS(g-h-1)= 1.004E-06  nbox=  4
     iter. #    96  RMS(g-h-1)= 9.998E-07  nbox=  9

     End of Laue-RISM calculation


     convergence has been achieved in    96 iterations


     solvent charge   -1.00039, renormalised to   -1.00000

     Total number of solvent (in expand-cell)
     H2O         1129.602229
     K+            20.077176
     OH-           21.077127

     Total charge of solvent (in expand-cell)
     H2O           -0.000433 e
     K+            20.077176 e
     OH-          -21.077134 e
     Total         -1.000391 e

     Chemical potential of solvation (in expand-cell)
     H2O        GaussFluct  -0.425910E+02 kcal/mol
     K+         GaussFluct  -0.224074E+04 kcal/mol
     OH-        GaussFluct   0.221907E+04 kcal/mol
     Total      GaussFluct  -0.642593E+02 kcal/mol


     total cpu time spent up to now is     2316.3 secs

     total energy              =     -35.23737807 Ry
     estimated scf accuracy    <       0.00004696 Ry

     iteration # 18     ecut=    40.00 Ry     beta= 0.10
     RMM-DIIS diagonalization
     ethr =  4.88E-07,  avg # of iterations =  2.6

     negative rho (up, down):  6.880E-03 0.000E+00

     Laue-RISM Calculation

     convergence threshold    = 1.000E-06
     iter. #     1  RMS(g-h-1)= 2.372E-05  nbox=  0
     iter. #    11  RMS(g-h-1)= 2.506E-06  nbox= 10
     iter. #    21  RMS(g-h-1)= 1.349E-06  nbox= 10
     iter. #    31  RMS(g-h-1)= 1.198E-06  nbox= 10
     iter. #    41  RMS(g-h-1)= 1.107E-06  nbox=  2
     iter. #    51  RMS(g-h-1)= 1.025E-06  nbox= 10
     iter. #    61  RMS(g-h-1)= 1.012E-06  nbox=  6
     iter. #    70  RMS(g-h-1)= 9.993E-07  nbox= 10

     End of Laue-RISM calculation


     convergence has been achieved in    70 iterations


     solvent charge   -1.00053, renormalised to   -1.00000

     Total number of solvent (in expand-cell)
     H2O         1129.600961
     K+            20.077168
     OH-           21.077194

     Total charge of solvent (in expand-cell)
     H2O           -0.000438 e
     K+            20.077168 e
     OH-          -21.077259 e
     Total         -1.000529 e

     Chemical potential of solvation (in expand-cell)
     H2O        GaussFluct  -0.425778E+02 kcal/mol
     K+         GaussFluct  -0.224074E+04 kcal/mol
     OH-        GaussFluct   0.221908E+04 kcal/mol
     Total      GaussFluct  -0.642361E+02 kcal/mol


     total cpu time spent up to now is     2364.8 secs

     total energy              =     -35.23738014 Ry
     estimated scf accuracy    <       0.00000351 Ry

     iteration # 19     ecut=    40.00 Ry     beta= 0.10
     RMM-DIIS diagonalization
     ethr =  4.39E-08,  avg # of iterations =  2.7

     negative rho (up, down):  7.640E-03 0.000E+00

     Laue-RISM Calculation

     convergence threshold    = 1.000E-06
     iter. #     1  RMS(g-h-1)= 8.736E-06  nbox=  0
     iter. #    11  RMS(g-h-1)= 1.384E-06  nbox= 10
     iter. #    21  RMS(g-h-1)= 1.051E-06  nbox= 10
     iter. #    31  RMS(g-h-1)= 1.021E-06  nbox= 10
     iter. #    39  RMS(g-h-1)= 9.964E-07  nbox=  6

     End of Laue-RISM calculation


     convergence has been achieved in    39 iterations


     solvent charge   -1.00029, renormalised to   -1.00000

     Total number of solvent (in expand-cell)
     H2O         1129.601351
     K+            20.077167
     OH-           21.077069

     Total charge of solvent (in expand-cell)
     H2O           -0.000427 e
     K+            20.077167 e
     OH-          -21.077033 e
     Total         -1.000293 e

     Chemical potential of solvation (in expand-cell)
     H2O        GaussFluct  -0.425780E+02 kcal/mol
     K+         GaussFluct  -0.224074E+04 kcal/mol
     OH-        GaussFluct   0.221908E+04 kcal/mol
     Total      GaussFluct  -0.642400E+02 kcal/mol


     total cpu time spent up to now is     2392.2 secs

     End of self-consistent calculation

          k = 0.0000 0.0000 0.0000 (115195 PWs)   bands (ev):

   -30.0983 -20.0421 -13.8287 -10.9927  -1.2339  -0.2132   0.1148   0.1224
     0.1300   0.1380   0.1391   0.2205   0.4669   0.4701   0.4759   0.5043
     0.5065   0.5109   0.5148   0.5157

     the Fermi energy is    -6.4575 ev

!    total energy              =     -35.23738099 Ry
     estimated scf accuracy    <       0.00000007 Ry
     smearing contrib. (-TS)   =      -0.00000000 Ry
     internal energy E=F+TS    =     -35.23738099 Ry

     The total energy is F=E-TS. E is the sum of the following terms:
     one-electron contribution =     -77.88100477 Ry
     hartree contribution      =      37.75868524 Ry
     xc contribution           =      -9.00596872 Ry
     ewald contribution        =      14.09579007 Ry
     solvation energy (RISM)   =      -0.20488280 Ry

     convergence has been achieved in  19 iterations

     negative rho (up, down):  7.640E-03 0.000E+00

     Forces acting on atoms (cartesian axes, Ry/au):

     atom    1 type  1   force =     0.83286023    0.68953495   -0.00000834
     atom    2 type  2   force =    -0.07572338   -0.06828771    0.10852902
     atom    3 type  2   force =    -0.07572216   -0.06828900   -0.10852758
     atom    4 type  2   force =    -0.68141468   -0.55295824    0.00000011

     Total force =     1.408387     Total SCF correction =     0.000287

     BFGS Geometry Optimization
     Energy error            =      2.0E+00 Ry
     Gradient error          =      8.3E-01 Ry/Bohr

     number of scf cycles    =   1
     number of bfgs steps    =   0

     energy             new  =     -35.2373809920 Ry

     new trust radius        =       0.5000000000 bohr
     new conv_thr            =       0.0000010000 Ry


ATOMIC_POSITIONS (angstrom)
O                0.2038049452        0.1687325530       -0.0000020411
H                0.5814701198        0.5832896651        0.6265575786
H                0.5814704194        0.5832893502       -0.6265572268
H               -0.7667454844       -0.6353115683        0.0000000261



     Writing config-only to output data dir output/opt.save/ :
     XML data file
     NEW-OLD atomic charge density approx. for the potential

     negative rho (up, down):  7.346E-03 0.000E+00

     Laue-RISM Calculation

     convergence threshold    = 1.000E-04
     iter. #     1  RMS(g-h-1)= 2.954E-01  nbox=  0
     iter. #    11  RMS(g-h-1)= 1.501E-02  nbox= 10
     iter. #    21  RMS(g-h-1)= 1.152E-02  nbox= 10
     iter. #    31  RMS(g-h-1)= 4.209E-03  nbox= 10
     iter. #    41  RMS(g-h-1)= 2.615E-03  nbox= 10
     iter. #    51  RMS(g-h-1)= 1.247E-03  nbox= 10
     iter. #    61  RMS(g-h-1)= 8.867E-04  nbox= 10
     iter. #    71  RMS(g-h-1)= 7.362E-04  nbox= 10
     iter. #    81  RMS(g-h-1)= 4.881E-04  nbox= 10
     iter. #    91  RMS(g-h-1)= 3.043E-04  nbox= 10
     iter. #   101  RMS(g-h-1)= 2.093E-04  nbox= 10
     iter. #   111  RMS(g-h-1)= 1.398E-04  nbox= 10
     iter. #   120  RMS(g-h-1)= 9.982E-05  nbox= 10

     End of Laue-RISM calculation


     convergence has been achieved in   120 iterations


     solvent charge   -1.02999, renormalised to   -1.00000

     Total number of solvent (in expand-cell)
     H2O         1129.429029
     K+            20.073703
     OH-           21.081488

     Total charge of solvent (in expand-cell)
     H2O           -0.000238 e
     K+            20.073703 e
     OH-          -21.103457 e
     Total         -1.029992 e

     Chemical potential of solvation (in expand-cell)
     H2O        GaussFluct  -0.394107E+02 kcal/mol
     K+         GaussFluct  -0.224086E+04 kcal/mol
     OH-        GaussFluct   0.222158E+04 kcal/mol
     Total      GaussFluct  -0.586897E+02 kcal/mol


     total cpu time spent up to now is     2470.4 secs

     Self-consistent Calculation

     iteration #  1     ecut=    40.00 Ry     beta= 0.10
     Davidson diagonalization with overlap
     c_bands:  1 eigenvalues not converged
     ethr =  1.00E-06,  avg # of iterations = 20.0

     negative rho (up, down):  6.691E-03 0.000E+00

     Laue-RISM Calculation

     convergence threshold    = 1.000E-04
     iter. #     1  RMS(g-h-1)= 1.723E-03  nbox=  0
     iter. #    11  RMS(g-h-1)= 2.519E-04  nbox= 10
     iter. #    20  RMS(g-h-1)= 9.941E-05  nbox= 10

     End of Laue-RISM calculation


     convergence has been achieved in    20 iterations


     solvent charge   -1.04204, renormalised to   -1.00000

     Total number of solvent (in expand-cell)
     H2O         1129.414674
     K+            20.075625
     OH-           21.097504

     Total charge of solvent (in expand-cell)
     H2O            0.002816 e
     K+            20.075625 e
     OH-          -21.120483 e
     Total         -1.042043 e

     Chemical potential of solvation (in expand-cell)
     H2O        GaussFluct  -0.393978E+02 kcal/mol
     K+         GaussFluct  -0.224028E+04 kcal/mol
     OH-        GaussFluct   0.222144E+04 kcal/mol
     Total      GaussFluct  -0.582352E+02 kcal/mol


     total cpu time spent up to now is     2487.0 secs

     total energy              =     -35.33062680 Ry
     estimated scf accuracy    <       0.21816481 Ry

     iteration #  2     ecut=    40.00 Ry     beta= 0.10
     Davidson diagonalization with overlap
     ethr =  2.73E-03,  avg # of iterations =  1.0

     negative rho (up, down):  1.190E-02 0.000E+00

     Laue-RISM Calculation

     convergence threshold    = 1.000E-04
     iter. #     1  RMS(g-h-1)= 9.160E-03  nbox=  0
     iter. #    11  RMS(g-h-1)= 1.326E-03  nbox= 10
     iter. #    21  RMS(g-h-1)= 6.059E-04  nbox= 10
     iter. #    31  RMS(g-h-1)= 3.510E-04  nbox= 10
     iter. #    41  RMS(g-h-1)= 2.442E-04  nbox= 10
     iter. #    51  RMS(g-h-1)= 1.412E-04  nbox= 10
     iter. #    61  RMS(g-h-1)= 1.096E-04  nbox= 10
     iter. #    66  RMS(g-h-1)= 9.840E-05  nbox= 10

     End of Laue-RISM calculation


     convergence has been achieved in    66 iterations


     solvent charge   -1.05138, renormalised to   -1.00000

     Total number of solvent (in expand-cell)
     H2O         1129.504772
     K+            20.073860
     OH-           21.089963

     Total charge of solvent (in expand-cell)
     H2O           -0.002842 e
     K+            20.073860 e
     OH-          -21.122396 e
     Total         -1.051378 e

     Chemical potential of solvation (in expand-cell)
     H2O        GaussFluct  -0.407779E+02 kcal/mol
     K+         GaussFluct  -0.224055E+04 kcal/mol
     OH-        GaussFluct   0.222141E+04 kcal/mol
     Total      GaussFluct  -0.599134E+02 kcal/mol


     total cpu time spent up to now is     2530.6 secs

     total energy              =     -35.25789667 Ry
     estimated scf accuracy    <       0.15758151 Ry

     iteration #  3     ecut=    40.00 Ry     beta= 0.10
     RMM-DIIS diagonalization
     ethr =  1.97E-03,  avg # of iterations =  2.6

     negative rho (up, down):  1.313E-02 0.000E+00

     Laue-RISM Calculation

     convergence threshold    = 1.063E-05
     iter. #     1  RMS(g-h-1)= 1.328E-03  nbox=  0
     iter. #    11  RMS(g-h-1)= 2.026E-04  nbox= 10
     iter. #    21  RMS(g-h-1)= 9.982E-05  nbox= 10
     iter. #    31  RMS(g-h-1)= 7.473E-05  nbox= 10
     iter. #    41  RMS(g-h-1)= 5.410E-05  nbox= 10
     iter. #    51  RMS(g-h-1)= 4.344E-05  nbox= 10
     iter. #    61  RMS(g-h-1)= 3.633E-05  nbox= 10
     iter. #    71  RMS(g-h-1)= 3.131E-05  nbox= 10
     iter. #    81  RMS(g-h-1)= 2.382E-05  nbox= 10
     iter. #    91  RMS(g-h-1)= 2.066E-05  nbox=  4
     iter. #   101  RMS(g-h-1)= 1.740E-05  nbox= 10
     iter. #   111  RMS(g-h-1)= 1.538E-05  nbox=  8
     iter. #   121  RMS(g-h-1)= 1.372E-05  nbox=  2
     iter. #   131  RMS(g-h-1)= 1.239E-05  nbox= 10
     iter. #   141  RMS(g-h-1)= 1.200E-05  nbox=  6
     iter. #   151  RMS(g-h-1)= 1.150E-05  nbox= 10
     iter. #   161  RMS(g-h-1)= 1.079E-05  nbox= 10
     iter. #   170  RMS(g-h-1)= 1.060E-05  nbox=  3

     End of Laue-RISM calculation


     convergence has been achieved in   170 iterations


     solvent charge   -1.00106, renormalised to   -1.00000

     Total number of solvent (in expand-cell)
     H2O         1129.515784
     K+            20.077569
     OH-           21.078167

     Total charge of solvent (in expand-cell)
     H2O           -0.000186 e
     K+            20.077569 e
     OH-          -21.078446 e
     Total         -1.001063 e

     Chemical potential of solvation (in expand-cell)
     H2O        GaussFluct  -0.407137E+02 kcal/mol
     K+         GaussFluct  -0.224079E+04 kcal/mol
     OH-        GaussFluct   0.222076E+04 kcal/mol
     Total      GaussFluct  -0.607357E+02 kcal/mol


     total cpu time spent up to now is     2637.9 secs

     total energy              =     -35.27732352 Ry
     estimated scf accuracy    <       0.00622186 Ry

     iteration #  4     ecut=    40.00 Ry     beta= 0.10
     RMM-DIIS diagonalization
     ethr =  7.78E-05,  avg # of iterations =  2.8

     negative rho (up, down):  1.392E-02 0.000E+00

     Laue-RISM Calculation

     convergence threshold    = 4.501E-06
     iter. #     1  RMS(g-h-1)= 1.210E-03  nbox=  0
     iter. #    11  RMS(g-h-1)= 1.147E-04  nbox= 10
     iter. #    21  RMS(g-h-1)= 5.023E-05  nbox= 10
     iter. #    31  RMS(g-h-1)= 3.092E-05  nbox= 10
     iter. #    41  RMS(g-h-1)= 2.190E-05  nbox= 10
     iter. #    51  RMS(g-h-1)= 1.751E-05  nbox= 10
     iter. #    61  RMS(g-h-1)= 1.658E-05  nbox= 10
     iter. #    71  RMS(g-h-1)= 1.332E-05  nbox=  8
     iter. #    81  RMS(g-h-1)= 1.118E-05  nbox= 10
     iter. #    91  RMS(g-h-1)= 9.855E-06  nbox=  8
     iter. #   101  RMS(g-h-1)= 9.195E-06  nbox=  2
     iter. #   111  RMS(g-h-1)= 8.503E-06  nbox= 10
     iter. #   121  RMS(g-h-1)= 8.311E-06  nbox=  6
     iter. #   131  RMS(g-h-1)= 7.980E-06  nbox= 10
     iter. #   141  RMS(g-h-1)= 7.696E-06  nbox= 10
     iter. #   151  RMS(g-h-1)= 7.484E-06  nbox=  4
     iter. #   161  RMS(g-h-1)= 7.129E-06  nbox= 10
     iter. #   171  RMS(g-h-1)= 6.929E-06  nbox=  8
     iter. #   181  RMS(g-h-1)= 6.645E-06  nbox=  2
     iter. #   191  RMS(g-h-1)= 6.401E-06  nbox= 10
     iter. #   201  RMS(g-h-1)= 6.192E-06  nbox=  6
     iter. #   211  RMS(g-h-1)= 6.044E-06  nbox= 10
     iter. #   221  RMS(g-h-1)= 5.926E-06  nbox= 10
     iter. #   231  RMS(g-h-1)= 5.817E-06  nbox=  4
     iter. #   241  RMS(g-h-1)= 5.678E-06  nbox= 10
     iter. #   251  RMS(g-h-1)= 5.490E-06  nbox=  8
     iter. #   261  RMS(g-h-1)= 5.319E-06  nbox=  2
     iter. #   271  RMS(g-h-1)= 5.215E-06  nbox= 10
     iter. #   281  RMS(g-h-1)= 5.141E-06  nbox=  6
     iter. #   291  RMS(g-h-1)= 5.047E-06  nbox= 10
     iter. #   301  RMS(g-h-1)= 5.053E-06  nbox= 10
     iter. #   311  RMS(g-h-1)= 4.830E-06  nbox=  4
     iter. #   321  RMS(g-h-1)= 4.701E-06  nbox= 10
     iter. #   331  RMS(g-h-1)= 4.512E-06  nbox=  8
     iter. #   332  RMS(g-h-1)= 4.495E-06  nbox=  9

     End of Laue-RISM calculation


     convergence has been achieved in   332 iterations


     solvent charge   -1.00079, renormalised to   -1.00000

     Total number of solvent (in expand-cell)
     H2O         1129.526114
     K+            20.077948
     OH-           21.078568

     Total charge of solvent (in expand-cell)
     H2O           -0.000169 e
     K+            20.077948 e
     OH-          -21.078566 e
     Total         -1.000786 e

     Chemical potential of solvation (in expand-cell)
     H2O        GaussFluct  -0.408006E+02 kcal/mol
     K+         GaussFluct  -0.224078E+04 kcal/mol
     OH-        GaussFluct   0.222071E+04 kcal/mol
     Total      GaussFluct  -0.608762E+02 kcal/mol


     total cpu time spent up to now is     2838.2 secs

     total energy              =     -35.27706787 Ry
     estimated scf accuracy    <       0.00238193 Ry

     iteration #  5     ecut=    40.00 Ry     beta= 0.10
     Davidson diagonalization with overlap
     ethr =  2.98E-05,  avg # of iterations =  2.0

     negative rho (up, down):  1.272E-02 0.000E+00

     Laue-RISM Calculation

     convergence threshold    = 4.259E-06
     iter. #     1  RMS(g-h-1)= 7.712E-04  nbox=  0
     iter. #    11  RMS(g-h-1)= 8.331E-05  nbox= 10
     iter. #    21  RMS(g-h-1)= 3.053E-05  nbox= 10
     iter. #    31  RMS(g-h-1)= 2.486E-05  nbox= 10
     iter. #    41  RMS(g-h-1)= 1.899E-05  nbox= 10
     iter. #    51  RMS(g-h-1)= 1.446E-05  nbox= 10
     iter. #    61  RMS(g-h-1)= 1.241E-05  nbox= 10
     iter. #    71  RMS(g-h-1)= 1.033E-05  nbox=  4
     iter. #    81  RMS(g-h-1)= 6.817E-06  nbox= 10
     iter. #    91  RMS(g-h-1)= 5.993E-06  nbox= 10
     iter. #   101  RMS(g-h-1)= 5.153E-06  nbox=  7
     iter. #   111  RMS(g-h-1)= 4.653E-06  nbox= 10
     iter. #   121  RMS(g-h-1)= 4.476E-06  nbox= 10
     iter. #   131  RMS(g-h-1)= 4.382E-06  nbox=  5
     iter. #   141  RMS(g-h-1)= 4.295E-06  nbox= 10
     iter. #   146  RMS(g-h-1)= 4.255E-06  nbox=  4

     End of Laue-RISM calculation


     convergence has been achieved in   146 iterations


     solvent charge   -1.00103, renormalised to   -1.00000

     Total number of solvent (in expand-cell)
     H2O         1129.540603
     K+            20.077680
     OH-           21.078417

     Total charge of solvent (in expand-cell)
     H2O           -0.000203 e
     K+            20.077680 e
     OH-          -21.078507 e
     Total         -1.001031 e

     Chemical potential of solvation (in expand-cell)
     H2O        GaussFluct  -0.410615E+02 kcal/mol
     K+         GaussFluct  -0.224078E+04 kcal/mol
     OH-        GaussFluct   0.222060E+04 kcal/mol
     Total      GaussFluct  -0.612385E+02 kcal/mol


     total cpu time spent up to now is     2930.1 secs

     total energy              =     -35.27747467 Ry
     estimated scf accuracy    <       0.00223922 Ry

     iteration #  6     ecut=    40.00 Ry     beta= 0.10
     RMM-DIIS diagonalization
     ethr =  2.80E-05,  avg # of iterations =  2.6

     negative rho (up, down):  1.291E-02 0.000E+00

     Laue-RISM Calculation

     convergence threshold    = 1.000E-06
     iter. #     1  RMS(g-h-1)= 4.615E-04  nbox=  0
     iter. #    11  RMS(g-h-1)= 4.142E-05  nbox= 10
     iter. #    21  RMS(g-h-1)= 1.803E-05  nbox= 10
     iter. #    31  RMS(g-h-1)= 1.064E-05  nbox= 10
     iter. #    41  RMS(g-h-1)= 8.192E-06  nbox= 10
     iter. #    51  RMS(g-h-1)= 7.285E-06  nbox= 10
     iter. #    61  RMS(g-h-1)= 5.781E-06  nbox=  6
     iter. #    71  RMS(g-h-1)= 4.861E-06  nbox= 10
     iter. #    81  RMS(g-h-1)= 4.425E-06  nbox= 10
     iter. #    91  RMS(g-h-1)= 4.337E-06  nbox=  4
     iter. #   101  RMS(g-h-1)= 4.239E-06  nbox= 10
     iter. #   111  RMS(g-h-1)= 4.180E-06  nbox=  8
     iter. #   121  RMS(g-h-1)= 4.080E-06  nbox=  2
     iter. #   131  RMS(g-h-1)= 4.016E-06  nbox= 10
     iter. #   141  RMS(g-h-1)= 3.952E-06  nbox=  6
     iter. #   151  RMS(g-h-1)= 3.904E-06  nbox= 10
     iter. #   161  RMS(g-h-1)= 4.354E-06  nbox= 10
     iter. #   171  RMS(g-h-1)= 3.876E-06  nbox=  4
     iter. #   181  RMS(g-h-1)= 3.831E-06  nbox= 10
     iter. #   191  RMS(g-h-1)= 3.866E-06  nbox=  8
     iter. #   201  RMS(g-h-1)= 3.722E-06  nbox=  2
     iter. #   211  RMS(g-h-1)= 3.685E-06  nbox= 10
     iter. #   221  RMS(g-h-1)= 3.673E-06  nbox=  6
     iter. #   231  RMS(g-h-1)= 3.556E-06  nbox= 10
     iter. #   241  RMS(g-h-1)= 3.561E-06  nbox= 10
     iter. #   251  RMS(g-h-1)= 3.437E-06  nbox=  4
     iter. #   261  RMS(g-h-1)= 3.375E-06  nbox= 10
     iter. #   271  RMS(g-h-1)= 3.323E-06  nbox=  8
     iter. #   281  RMS(g-h-1)= 3.290E-06  nbox=  2
     iter. #   291  RMS(g-h-1)= 3.266E-06  nbox= 10
     iter. #   301  RMS(g-h-1)= 3.207E-06  nbox=  6
     iter. #   311  RMS(g-h-1)= 3.081E-06  nbox= 10
     iter. #   321  RMS(g-h-1)= 3.032E-06  nbox= 10
     iter. #   331  RMS(g-h-1)= 3.011E-06  nbox=  4
     iter. #   341  RMS(g-h-1)= 2.979E-06  nbox= 10
     iter. #   351  RMS(g-h-1)= 2.925E-06  nbox=  8
     iter. #   361  RMS(g-h-1)= 2.855E-06  nbox=  2
     iter. #   371  RMS(g-h-1)= 2.856E-06  nbox= 10
     iter. #   381  RMS(g-h-1)= 2.790E-06  nbox=  6
     iter. #   391  RMS(g-h-1)= 2.734E-06  nbox= 10
     iter. #   401  RMS(g-h-1)= 2.699E-06  nbox= 10
     iter. #   411  RMS(g-h-1)= 2.687E-06  nbox=  4
     iter. #   421  RMS(g-h-1)= 2.586E-06  nbox= 10
     iter. #   431  RMS(g-h-1)= 2.517E-06  nbox=  8
     iter. #   441  RMS(g-h-1)= 2.466E-06  nbox=  2
     iter. #   451  RMS(g-h-1)= 2.404E-06  nbox= 10
     iter. #   461  RMS(g-h-1)= 2.373E-06  nbox=  6
     iter. #   471  RMS(g-h-1)= 2.351E-06  nbox= 10
     iter. #   481  RMS(g-h-1)= 2.311E-06  nbox= 10
     iter. #   491  RMS(g-h-1)= 2.295E-06  nbox=  4
     iter. #   501  RMS(g-h-1)= 2.283E-06  nbox= 10
     iter. #   511  RMS(g-h-1)= 2.278E-06  nbox=  8
     iter. #   521  RMS(g-h-1)= 2.256E-06  nbox=  2
     iter. #   531  RMS(g-h-1)= 2.212E-06  nbox= 10
     iter. #   541  RMS(g-h-1)= 2.175E-06  nbox=  6
     iter. #   551  RMS(g-h-1)= 2.171E-06  nbox= 10
     iter. #   561  RMS(g-h-1)= 2.122E-06  nbox= 10
     iter. #   571  RMS(g-h-1)= 2.107E-06  nbox=  4
     iter. #   581  RMS(g-h-1)= 2.097E-06  nbox= 10
     iter. #   591  RMS(g-h-1)= 2.078E-06  nbox=  8
     iter. #   601  RMS(g-h-1)= 2.057E-06  nbox=  2
     iter. #   611  RMS(g-h-1)= 2.045E-06  nbox= 10
     iter. #   621  RMS(g-h-1)= 2.038E-06  nbox=  6
     iter. #   631  RMS(g-h-1)= 2.026E-06  nbox= 10
     iter. #   641  RMS(g-h-1)= 2.017E-06  nbox= 10
     iter. #   651  RMS(g-h-1)= 2.001E-06  nbox=  4
     iter. #   661  RMS(g-h-1)= 1.969E-06  nbox= 10
     iter. #   671  RMS(g-h-1)= 1.952E-06  nbox=  8
     iter. #   681  RMS(g-h-1)= 1.927E-06  nbox=  2
     iter. #   691  RMS(g-h-1)= 1.918E-06  nbox= 10
     iter. #   701  RMS(g-h-1)= 1.904E-06  nbox=  6
     iter. #   711  RMS(g-h-1)= 1.896E-06  nbox= 10
     iter. #   721  RMS(g-h-1)= 1.892E-06  nbox= 10
     iter. #   731  RMS(g-h-1)= 1.885E-06  nbox=  4
     iter. #   741  RMS(g-h-1)= 1.883E-06  nbox= 10
     iter. #   751  RMS(g-h-1)= 1.875E-06  nbox=  8
     iter. #   761  RMS(g-h-1)= 1.841E-06  nbox=  2
     iter. #   771  RMS(g-h-1)= 1.803E-06  nbox= 10
     iter. #   781  RMS(g-h-1)= 1.795E-06  nbox=  6
     iter. #   791  RMS(g-h-1)= 1.771E-06  nbox= 10
     iter. #   801  RMS(g-h-1)= 1.745E-06  nbox= 10
     iter. #   811  RMS(g-h-1)= 1.738E-06  nbox=  4
     iter. #   821  RMS(g-h-1)= 1.706E-06  nbox= 10
     iter. #   831  RMS(g-h-1)= 1.672E-06  nbox=  8
     iter. #   841  RMS(g-h-1)= 1.647E-06  nbox=  2
     iter. #   851  RMS(g-h-1)= 1.611E-06  nbox= 10
     iter. #   861  RMS(g-h-1)= 1.591E-06  nbox=  6
     iter. #   871  RMS(g-h-1)= 1.574E-06  nbox= 10
     iter. #   881  RMS(g-h-1)= 1.554E-06  nbox= 10
     iter. #   891  RMS(g-h-1)= 1.543E-06  nbox=  4
     iter. #   901  RMS(g-h-1)= 1.515E-06  nbox= 10
     iter. #   911  RMS(g-h-1)= 1.503E-06  nbox=  8
     iter. #   921  RMS(g-h-1)= 1.482E-06  nbox=  2
     iter. #   931  RMS(g-h-1)= 1.462E-06  nbox= 10
     iter. #   941  RMS(g-h-1)= 1.440E-06  nbox=  6
     iter. #   951  RMS(g-h-1)= 1.419E-06  nbox= 10
     iter. #   961  RMS(g-h-1)= 1.407E-06  nbox= 10
     iter. #   971  RMS(g-h-1)= 1.376E-06  nbox=  4
     iter. #   981  RMS(g-h-1)= 1.364E-06  nbox= 10
     iter. #   991  RMS(g-h-1)= 1.426E-06  nbox=  8
     iter. #  1001  RMS(g-h-1)= 1.349E-06  nbox=  2
     iter. #  1011  RMS(g-h-1)= 1.337E-06  nbox= 10
     iter. #  1021  RMS(g-h-1)= 1.330E-06  nbox=  6
     iter. #  1031  RMS(g-h-1)= 1.324E-06  nbox= 10
     iter. #  1041  RMS(g-h-1)= 1.314E-06  nbox= 10
     iter. #  1051  RMS(g-h-1)= 1.310E-06  nbox=  4
     iter. #  1061  RMS(g-h-1)= 1.305E-06  nbox= 10
     iter. #  1071  RMS(g-h-1)= 1.298E-06  nbox=  8
     iter. #  1081  RMS(g-h-1)= 1.290E-06  nbox=  2
     iter. #  1091  RMS(g-h-1)= 1.284E-06  nbox= 10
     iter. #  1101  RMS(g-h-1)= 1.280E-06  nbox=  6
     iter. #  1111  RMS(g-h-1)= 1.275E-06  nbox= 10
     iter. #  1121  RMS(g-h-1)= 1.267E-06  nbox= 10
     iter. #  1131  RMS(g-h-1)= 1.262E-06  nbox=  4
     iter. #  1141  RMS(g-h-1)= 1.250E-06  nbox= 10
     iter. #  1151  RMS(g-h-1)= 1.240E-06  nbox=  8
     iter. #  1161  RMS(g-h-1)= 1.232E-06  nbox=  2
     iter. #  1171  RMS(g-h-1)= 1.222E-06  nbox= 10
     iter. #  1181  RMS(g-h-1)= 1.207E-06  nbox=  6
     iter. #  1191  RMS(g-h-1)= 1.193E-06  nbox= 10
     iter. #  1201  RMS(g-h-1)= 1.180E-06  nbox= 10
     iter. #  1211  RMS(g-h-1)= 1.164E-06  nbox=  4
     iter. #  1221  RMS(g-h-1)= 1.154E-06  nbox= 10
     iter. #  1231  RMS(g-h-1)= 1.148E-06  nbox=  8
     iter. #  1241  RMS(g-h-1)= 1.144E-06  nbox=  2
     iter. #  1251  RMS(g-h-1)= 1.139E-06  nbox= 10
     iter. #  1261  RMS(g-h-1)= 1.137E-06  nbox=  6
     iter. #  1271  RMS(g-h-1)= 1.132E-06  nbox= 10
     iter. #  1281  RMS(g-h-1)= 1.129E-06  nbox= 10
     iter. #  1291  RMS(g-h-1)= 1.126E-06  nbox=  4
     iter. #  1301  RMS(g-h-1)= 1.122E-06  nbox= 10
     iter. #  1311  RMS(g-h-1)= 1.117E-06  nbox=  8
     iter. #  1321  RMS(g-h-1)= 1.111E-06  nbox=  2
     iter. #  1331  RMS(g-h-1)= 1.103E-06  nbox= 10
     iter. #  1341  RMS(g-h-1)= 1.101E-06  nbox=  6
     iter. #  1351  RMS(g-h-1)= 1.090E-06  nbox= 10
     iter. #  1361  RMS(g-h-1)= 1.071E-06  nbox= 10
     iter. #  1371  RMS(g-h-1)= 1.056E-06  nbox=  4
     iter. #  1381  RMS(g-h-1)= 1.042E-06  nbox= 10
     iter. #  1391  RMS(g-h-1)= 1.032E-06  nbox=  8
     iter. #  1401  RMS(g-h-1)= 1.020E-06  nbox=  2
     iter. #  1411  RMS(g-h-1)= 1.008E-06  nbox= 10
     iter. #  1420  RMS(g-h-1)= 9.999E-07  nbox=  5

     End of Laue-RISM calculation


     convergence has been achieved in  1420 iterations


     solvent charge   -1.00079, renormalised to   -1.00000

     Total number of solvent (in expand-cell)
     H2O         1129.557916
     K+            20.077978
     OH-           21.078591

     Total charge of solvent (in expand-cell)
     H2O           -0.000184 e
     K+            20.077978 e
     OH-          -21.078584 e
     Total         -1.000791 e

     Chemical potential of solvation (in expand-cell)
     H2O        GaussFluct  -0.412563E+02 kcal/mol
     K+         GaussFluct  -0.224077E+04 kcal/mol
     OH-        GaussFluct   0.222051E+04 kcal/mol
     Total      GaussFluct  -0.615212E+02 kcal/mol


[...]


     total cpu time spent up to now is    18937.9 secs

     total energy              =     -35.50176011 Ry
     estimated scf accuracy    <       0.00000976 Ry

     iteration #  2     ecut=    40.00 Ry     beta= 0.10
     Davidson diagonalization with overlap
     ethr =  1.22E-07,  avg # of iterations =  2.0

     negative rho (up, down):  7.073E-03 0.000E+00

     Laue-RISM Calculation

     convergence threshold    = 1.000E-06
     iter. #     1  RMS(g-h-1)= 2.764E-05  nbox=  0
     iter. #    11  RMS(g-h-1)= 3.331E-06  nbox= 10
     iter. #    21  RMS(g-h-1)= 1.549E-06  nbox= 10
     iter. #    31  RMS(g-h-1)= 1.266E-06  nbox= 10
     iter. #    41  RMS(g-h-1)= 1.108E-06  nbox= 10
     iter. #    51  RMS(g-h-1)= 1.040E-06  nbox=  4
     iter. #    61  RMS(g-h-1)= 9.985E-07  nbox= 10

     End of Laue-RISM calculation


     convergence has been achieved in    61 iterations


     solvent charge   -1.00051, renormalised to   -1.00000

     Total number of solvent (in expand-cell)
     H2O         1129.490275
     K+            20.086890
     OH-           21.086936

     Total charge of solvent (in expand-cell)
     H2O           -0.000395 e
     K+            20.086890 e
     OH-          -21.087000 e
     Total         -1.000505 e

     Chemical potential of solvation (in expand-cell)
     H2O        GaussFluct  -0.402809E+02 kcal/mol
     K+         GaussFluct  -0.224116E+04 kcal/mol
     OH-        GaussFluct   0.222022E+04 kcal/mol
     Total      GaussFluct  -0.612254E+02 kcal/mol


     total cpu time spent up to now is    18978.7 secs

     total energy              =     -35.50176323 Ry
     estimated scf accuracy    <       0.00000517 Ry

     iteration #  3     ecut=    40.00 Ry     beta= 0.10
     RMM-DIIS diagonalization
     ethr =  6.47E-08,  avg # of iterations =  2.5

     negative rho (up, down):  7.098E-03 0.000E+00

     Laue-RISM Calculation

     convergence threshold    = 1.000E-06
     iter. #     1  RMS(g-h-1)= 6.238E-05  nbox=  0
     iter. #    11  RMS(g-h-1)= 7.217E-06  nbox= 10
     iter. #    21  RMS(g-h-1)= 2.786E-06  nbox= 10
     iter. #    31  RMS(g-h-1)= 1.784E-06  nbox= 10
     iter. #    41  RMS(g-h-1)= 1.462E-06  nbox= 10
     iter. #    51  RMS(g-h-1)= 1.308E-06  nbox=  2
     iter. #    61  RMS(g-h-1)= 1.102E-06  nbox= 10
     iter. #    71  RMS(g-h-1)= 1.035E-06  nbox=  6
     iter. #    81  RMS(g-h-1)= 1.003E-06  nbox= 10
     iter. #    84  RMS(g-h-1)= 9.986E-07  nbox=  3

     End of Laue-RISM calculation


     convergence has been achieved in    84 iterations


     solvent charge   -1.00040, renormalised to   -1.00000

     Total number of solvent (in expand-cell)
     H2O         1129.490823
     K+            20.086925
     OH-           21.086881

     Total charge of solvent (in expand-cell)
     H2O           -0.000383 e
     K+            20.086925 e
     OH-          -21.086945 e
     Total         -1.000403 e

     Chemical potential of solvation (in expand-cell)
     H2O        GaussFluct  -0.402784E+02 kcal/mol
     K+         GaussFluct  -0.224116E+04 kcal/mol
     OH-        GaussFluct   0.222022E+04 kcal/mol
     Total      GaussFluct  -0.612191E+02 kcal/mol


     total cpu time spent up to now is    19033.2 secs

     total energy              =     -35.50176614 Ry
     estimated scf accuracy    <       0.00000236 Ry

     iteration #  4     ecut=    40.00 Ry     beta= 0.10
     RMM-DIIS diagonalization
     ethr =  2.95E-08,  avg # of iterations =  2.5

     negative rho (up, down):  7.089E-03 0.000E+00

     Laue-RISM Calculation

     convergence threshold    = 1.000E-06
     iter. #     1  RMS(g-h-1)= 1.538E-05  nbox=  0
     iter. #    11  RMS(g-h-1)= 1.955E-06  nbox= 10
     iter. #    21  RMS(g-h-1)= 1.169E-06  nbox= 10
     iter. #    31  RMS(g-h-1)= 1.069E-06  nbox= 10
     iter. #    41  RMS(g-h-1)= 1.004E-06  nbox=  6
     iter. #    43  RMS(g-h-1)= 9.988E-07  nbox=  8

     End of Laue-RISM calculation


     convergence has been achieved in    43 iterations


     solvent charge   -1.00052, renormalised to   -1.00000

     Total number of solvent (in expand-cell)
     H2O         1129.491379
     K+            20.086934
     OH-           21.086988

     Total charge of solvent (in expand-cell)
     H2O           -0.000386 e
     K+            20.086934 e
     OH-          -21.087065 e
     Total         -1.000517 e

     Chemical potential of solvation (in expand-cell)
     H2O        GaussFluct  -0.402863E+02 kcal/mol
     K+         GaussFluct  -0.224116E+04 kcal/mol
     OH-        GaussFluct   0.222022E+04 kcal/mol
     Total      GaussFluct  -0.612285E+02 kcal/mol


     total cpu time spent up to now is    19063.0 secs

     End of self-consistent calculation

          k = 0.0000 0.0000 0.0000 (115195 PWs)   bands (ev):

   -29.2550 -15.8755 -15.8489 -11.5247  -0.9962  -0.2026   0.1115   0.1211
     0.1256   0.1352   0.1366   0.2503   0.4647   0.4697   0.4716   0.4981
     0.5025   0.5098   0.5110   0.5127

     the Fermi energy is    -6.2489 ev

!    total energy              =     -35.50176749 Ry
     estimated scf accuracy    <       0.00000015 Ry
     smearing contrib. (-TS)   =      -0.00000000 Ry
     internal energy E=F+TS    =     -35.50176749 Ry

     The total energy is F=E-TS. E is the sum of the following terms:
     one-electron contribution =     -75.72271818 Ry
     hartree contribution      =      36.75933525 Ry
     xc contribution           =      -8.83936597 Ry
     ewald contribution        =      12.49625952 Ry
     solvation energy (RISM)   =      -0.19527811 Ry

     convergence has been achieved in   4 iterations

     negative rho (up, down):  7.089E-03 0.000E+00

     Forces acting on atoms (cartesian axes, Ry/au):

     atom    1 type  1   force =    -0.00308948   -0.00240441   -0.00010386
     atom    2 type  2   force =     0.00060821    0.00106096    0.00098733
     atom    3 type  2   force =     0.00060278    0.00096330   -0.00084309
     atom    4 type  2   force =     0.00187850    0.00038015    0.00000798

     Total force =     0.004846     Total SCF correction =     0.001372
     SCF correction compared to forces is large: reduce conv_thr to get better values
     Energy error            =      3.8E-05 Ry
     Gradient error          =      3.1E-03 Ry/Bohr

     number of scf cycles    =  15
     number of bfgs steps    =  14

     energy             old  =     -35.5017296721 Ry
     energy             new  =     -35.5017674893 Ry

     CASE: energy            _new < energy            _old

     new trust radius        =       0.0040570468 bohr
     new conv_thr            =       0.0000010000 Ry


ATOMIC_POSITIONS (angstrom)
O                0.3346260422       -0.0303952914       -0.0000579821
H                0.4373531405        0.5572945751        0.8123650609
H                0.4373440995        0.5572352771       -0.8122734312
H               -0.6093232822       -0.3841345607        0.0000016850



     Writing config-only to output data dir output/opt.save/ :
     XML data file
     NEW-OLD atomic charge density approx. for the potential

     negative rho (up, down):  7.080E-03 0.000E+00

     Laue-RISM Calculation

     convergence threshold    = 1.000E-04
     iter. #     1  RMS(g-h-1)= 2.117E-03  nbox=  0
     iter. #    10  RMS(g-h-1)= 9.870E-05  nbox=  9

     End of Laue-RISM calculation


     convergence has been achieved in    10 iterations


     solvent charge   -0.99794, renormalised to   -1.00000

     Total number of solvent (in expand-cell)
     H2O         1129.490458
     K+            20.087297
     OH-           21.086630

     Total charge of solvent (in expand-cell)
     H2O           -0.000703 e
     K+            20.087297 e
     OH-          -21.084534 e
     Total         -0.997939 e

     Chemical potential of solvation (in expand-cell)
     H2O        GaussFluct  -0.401847E+02 kcal/mol
     K+         GaussFluct  -0.224120E+04 kcal/mol
     OH-        GaussFluct   0.222014E+04 kcal/mol
     Total      GaussFluct  -0.612407E+02 kcal/mol


     total cpu time spent up to now is    19074.0 secs

     Self-consistent Calculation

     iteration #  1     ecut=    40.00 Ry     beta= 0.10
     Davidson diagonalization with overlap
     ethr =  1.00E-06,  avg # of iterations =  3.0

     Threshold (ethr) on eigenvalues was too large:
     Diagonalizing with lowered threshold

     Davidson diagonalization with overlap
     ethr =  7.25E-08,  avg # of iterations =  1.0

     negative rho (up, down):  7.080E-03 0.000E+00

     Laue-RISM Calculation

     convergence threshold    = 1.000E-06
     iter. #     1  RMS(g-h-1)= 9.853E-05  nbox=  0
     iter. #    11  RMS(g-h-1)= 2.658E-05  nbox= 10
     iter. #    21  RMS(g-h-1)= 1.467E-05  nbox= 10
     iter. #    31  RMS(g-h-1)= 8.992E-06  nbox= 10
     iter. #    41  RMS(g-h-1)= 7.127E-06  nbox= 10
     iter. #    51  RMS(g-h-1)= 5.821E-06  nbox= 10
     iter. #    61  RMS(g-h-1)= 4.010E-06  nbox= 10
     iter. #    71  RMS(g-h-1)= 2.320E-06  nbox= 10
     iter. #    81  RMS(g-h-1)= 1.827E-06  nbox= 10
     iter. #    91  RMS(g-h-1)= 1.556E-06  nbox=  4
     iter. #   101  RMS(g-h-1)= 1.317E-06  nbox= 10
     iter. #   111  RMS(g-h-1)= 1.217E-06  nbox=  8
     iter. #   121  RMS(g-h-1)= 1.174E-06  nbox=  2
     iter. #   131  RMS(g-h-1)= 1.128E-06  nbox= 10
     iter. #   141  RMS(g-h-1)= 1.081E-06  nbox=  6
     iter. #   151  RMS(g-h-1)= 1.049E-06  nbox= 10
     iter. #   161  RMS(g-h-1)= 1.020E-06  nbox= 10
     iter. #   170  RMS(g-h-1)= 9.999E-07  nbox=  3

     End of Laue-RISM calculation


     convergence has been achieved in   170 iterations


     solvent charge   -1.00036, renormalised to   -1.00000

     Total number of solvent (in expand-cell)
     H2O         1129.490327
     K+            20.086873
     OH-           21.086882

     Total charge of solvent (in expand-cell)
     H2O           -0.000387 e
     K+            20.086873 e
     OH-          -21.086842 e
     Total         -1.000355 e

     Chemical potential of solvation (in expand-cell)
     H2O        GaussFluct  -0.402650E+02 kcal/mol
     K+         GaussFluct  -0.224116E+04 kcal/mol
     OH-        GaussFluct   0.222024E+04 kcal/mol
     Total      GaussFluct  -0.611911E+02 kcal/mol


     total cpu time spent up to now is    19182.3 secs

     total energy              =     -35.50176913 Ry
     estimated scf accuracy    <       0.00000607 Ry

     iteration #  2     ecut=    40.00 Ry     beta= 0.10
     Davidson diagonalization with overlap
     ethr =  7.58E-08,  avg # of iterations =  2.0

     negative rho (up, down):  7.082E-03 0.000E+00

     Laue-RISM Calculation

     convergence threshold    = 1.000E-06
     iter. #     1  RMS(g-h-1)= 1.214E-05  nbox=  0
     iter. #    11  RMS(g-h-1)= 1.720E-06  nbox= 10
     iter. #    21  RMS(g-h-1)= 1.076E-06  nbox= 10
     iter. #    31  RMS(g-h-1)= 1.008E-06  nbox= 10
     iter. #    35  RMS(g-h-1)= 9.996E-07  nbox=  4

     End of Laue-RISM calculation


     convergence has been achieved in    35 iterations


     solvent charge   -1.00048, renormalised to   -1.00000

     Total number of solvent (in expand-cell)
     H2O         1129.490436
     K+            20.086859
     OH-           21.086932

     Total charge of solvent (in expand-cell)
     H2O           -0.000396 e
     K+            20.086859 e
     OH-          -21.086944 e
     Total         -1.000480 e

     Chemical potential of solvation (in expand-cell)
     H2O        GaussFluct  -0.402663E+02 kcal/mol
     K+         GaussFluct  -0.224116E+04 kcal/mol
     OH-        GaussFluct   0.222024E+04 kcal/mol
     Total      GaussFluct  -0.611893E+02 kcal/mol


     total cpu time spent up to now is    19207.0 secs

     total energy              =     -35.50177105 Ry
     estimated scf accuracy    <       0.00000240 Ry

     iteration #  3     ecut=    40.00 Ry     beta= 0.10
     RMM-DIIS diagonalization
     ethr =  3.00E-08,  avg # of iterations =  2.5

     negative rho (up, down):  7.089E-03 0.000E+00

     Laue-RISM Calculation

     convergence threshold    = 1.000E-06
     iter. #     1  RMS(g-h-1)= 3.167E-05  nbox=  0
     iter. #    11  RMS(g-h-1)= 3.885E-06  nbox= 10
     iter. #    21  RMS(g-h-1)= 1.635E-06  nbox= 10
     iter. #    31  RMS(g-h-1)= 1.394E-06  nbox= 10
     iter. #    41  RMS(g-h-1)= 1.163E-06  nbox= 10
     iter. #    51  RMS(g-h-1)= 1.068E-06  nbox=  4
     iter. #    61  RMS(g-h-1)= 1.009E-06  nbox= 10
     iter. #    66  RMS(g-h-1)= 9.992E-07  nbox=  3

     End of Laue-RISM calculation


     convergence has been achieved in    66 iterations


     solvent charge   -1.00048, renormalised to   -1.00000

     Total number of solvent (in expand-cell)
     H2O         1129.490672
     K+            20.086857
     OH-           21.086882

     Total charge of solvent (in expand-cell)
     H2O           -0.000390 e
     K+            20.086857 e
     OH-          -21.086950 e
     Total         -1.000483 e

     Chemical potential of solvation (in expand-cell)
     H2O        GaussFluct  -0.402655E+02 kcal/mol
     K+         GaussFluct  -0.224116E+04 kcal/mol
     OH-        GaussFluct   0.222024E+04 kcal/mol
     Total      GaussFluct  -0.611850E+02 kcal/mol


     total cpu time spent up to now is    19250.9 secs

     total energy              =     -35.50177195 Ry
     estimated scf accuracy    <       0.00000131 Ry

     iteration #  4     ecut=    40.00 Ry     beta= 0.10
     RMM-DIIS diagonalization
     ethr =  1.64E-08,  avg # of iterations =  2.6

     negative rho (up, down):  7.090E-03 0.000E+00

     Laue-RISM Calculation

     convergence threshold    = 1.000E-06
     iter. #     1  RMS(g-h-1)= 1.317E-05  nbox=  0
     iter. #    11  RMS(g-h-1)= 1.619E-06  nbox= 10
     iter. #    21  RMS(g-h-1)= 1.069E-06  nbox= 10
     iter. #    31  RMS(g-h-1)= 1.010E-06  nbox= 10
     iter. #    37  RMS(g-h-1)= 9.964E-07  nbox=  4

     End of Laue-RISM calculation


     convergence has been achieved in    37 iterations


     solvent charge   -1.00044, renormalised to   -1.00000

     Total number of solvent (in expand-cell)
     H2O         1129.490834
     K+            20.086865
     OH-           21.086887

     Total charge of solvent (in expand-cell)
     H2O           -0.000388 e
     K+            20.086865 e
     OH-          -21.086921 e
     Total         -1.000443 e

     Chemical potential of solvation (in expand-cell)
     H2O        GaussFluct  -0.402652E+02 kcal/mol
     K+         GaussFluct  -0.224116E+04 kcal/mol
     OH-        GaussFluct   0.222024E+04 kcal/mol
     Total      GaussFluct  -0.611843E+02 kcal/mol


     total cpu time spent up to now is    19277.2 secs

     End of self-consistent calculation

          k = 0.0000 0.0000 0.0000 (115195 PWs)   bands (ev):

   -29.2461 -15.8663 -15.8631 -11.5098  -0.9971  -0.2025   0.1116   0.1213
     0.1258   0.1354   0.1368   0.2504   0.4649   0.4701   0.4716   0.4982
     0.5026   0.5100   0.5111   0.5129

     the Fermi energy is    -6.2465 ev

!    total energy              =     -35.50177244 Ry
     estimated scf accuracy    <       0.00000012 Ry
     smearing contrib. (-TS)   =      -0.00000000 Ry
     internal energy E=F+TS    =     -35.50177244 Ry

     The total energy is F=E-TS. E is the sum of the following terms:
     one-electron contribution =     -75.71752977 Ry
     hartree contribution      =      36.75706534 Ry
     xc contribution           =      -8.83896010 Ry
     ewald contribution        =      12.49278947 Ry
     solvation energy (RISM)   =      -0.19513738 Ry

     convergence has been achieved in   4 iterations

     negative rho (up, down):  7.090E-03 0.000E+00

     Forces acting on atoms (cartesian axes, Ry/au):

     atom    1 type  1   force =    -0.00016964   -0.00054919    0.00025801
     atom    2 type  2   force =    -0.00007957   -0.00001987   -0.00002966
     atom    3 type  2   force =    -0.00006301    0.00016272   -0.00023599
     atom    4 type  2   force =     0.00031222    0.00040635   -0.00001071

     Total force =     0.000868     Total SCF correction =     0.000250
     SCF correction compared to forces is large: reduce conv_thr to get better values
     Energy error            =      5.0E-06 Ry
     Gradient error          =      5.5E-04 Ry/Bohr

     bfgs converged in  16 scf cycles and  15 bfgs steps
     (criteria: energy <  1.0E-04 Ry, force <  1.0E-03 Ry/Bohr)

     End of BFGS Geometry Optimization

     Final energy             =     -35.5017724434 Ry

     File output/opt.bfgs deleted, as requested
Begin final coordinates

ATOMIC_POSITIONS (angstrom)
O                0.3346260422       -0.0303952914       -0.0000579821
H                0.4373531405        0.5572945751        0.8123650609
H                0.4373440995        0.5572352771       -0.8122734312
H               -0.6093232822       -0.3841345607        0.0000016850
End final coordinates



     Writing all to output data dir output/opt.save/ :
     XML data file, charge density, RISM restart, pseudopotentials, RISM molfiles, collected wavefunctions
 
     init_run     :     82.04s CPU     83.58s WALL (       1 calls)
     electrons    :  18003.21s CPU  18360.82s WALL (      16 calls)
     update_pot   :      3.52s CPU      3.87s WALL (      15 calls)
     forces       :      9.75s CPU     10.82s WALL (      16 calls)

     Called by init_run:
     wfcinit      :      0.04s CPU      0.05s WALL (       1 calls)
     potinit      :     80.23s CPU     81.66s WALL (       1 calls)
     hinit0       :      0.22s CPU      0.24s WALL (       1 calls)

     Called by electrons:
     c_bands      :     22.57s CPU     22.90s WALL (     147 calls)
     sum_band     :     21.08s CPU     28.40s WALL (     147 calls)
     v_of_rho     :     28.52s CPU     30.66s WALL (     162 calls)
     newd         :     20.00s CPU     27.13s WALL (     162 calls)
     mix_rho      :      5.17s CPU      5.51s WALL (     147 calls)

     Called by c_bands:
     init_us_2    :      0.19s CPU      0.19s WALL (     295 calls)
     rrmmdiagg    :      6.95s CPU      6.99s WALL (      92 calls)
     wfcrot       :      5.20s CPU      5.24s WALL (      93 calls)

     Called by *rmmdiagg:
     h_psi        :     18.79s CPU     18.88s WALL (     607 calls)
     s_psi        :      0.20s CPU      0.21s WALL (     607 calls)
     g_psi        :      0.02s CPU      0.02s WALL (     249 calls)

     Called by h_psi:
     h_psi:calbec :      0.44s CPU      0.45s WALL (     607 calls)
     vloc_psi     :     18.01s CPU     18.09s WALL (     607 calls)
     add_vuspsi   :      0.22s CPU      0.22s WALL (     607 calls)

     General routines
     calbec       :      0.61s CPU      0.63s WALL (     818 calls)
     fft          :     33.39s CPU     38.26s WALL (    2412 calls)
     ffts         :      1.89s CPU      2.22s WALL (     309 calls)
     fftw         :     17.36s CPU     17.42s WALL (    8990 calls)
     interpolate  :      3.16s CPU      3.49s WALL (     162 calls)
 
     Parallel routines
     fft_scatt_xy :    157.01s CPU    159.23s WALL (  369756 calls)
     fft_scatt_yz :   1665.92s CPU   1966.98s WALL (  369756 calls)

     RISM routines
     1DRISM_pre   :      0.00s CPU      0.00s WALL (       1 calls)
     1DRISM_run   :    137.35s CPU    177.02s WALL (       1 calls)
     3DRISM_pre   :      7.02s CPU      7.15s WALL (       1 calls)
     3DRISM_run   :  18592.53s CPU  18942.11s WALL (     162 calls)
     3DRISM_ions  :      0.91s CPU      0.92s WALL (      15 calls)
     3DRISM_for   :      1.79s CPU      1.79s WALL (      16 calls)
     3DRISM_vsol  :      2.21s CPU      2.42s WALL (     162 calls)
 
     PWSCF        :      5h14m CPU      5h21m WALL

 
   This run was terminated on:  17: 4: 9  29May2024            

=------------------------------------------------------------------------------=
   JOB DONE.
=------------------------------------------------------------------------------=
