
     Program PWSCF v.7.3.1 starts on  9Jun2024 at 11:40:40 

     This program is part of the open-source Quantum ESPRESSO suite
     for quantum simulation of materials; please cite
         "P. Giannozzi et al., J. Phys.:Condens. Matter 21 395502 (2009);
         "P. Giannozzi et al., J. Phys.:Condens. Matter 29 465901 (2017);
         "P. Giannozzi et al., J. Chem. Phys. 152 154105 (2020);
          URL http://www.quantum-espresso.org", 
     in publications or presentations arising from this work. More details at
     http://www.quantum-espresso.org/quote

     Parallel version (MPI), running on    32 processors

     MPI processes distributed on     1 nodes
     183281 MiB available memory on the printing compute node when the environment starts
 
     Reading input from espresso.pwi

     Current dimensions of program PWSCF are:
     Max number of different atomic species (ntypx) = 10
     Max number of k-points (npk) =  40000
     Max angular momentum in pseudopotentials (lmaxx) =  4
     Message from routine iosys_1drism:
     default density from MOL file(H2O.tip5p.Nishihara.MOL) is used
     Found identity + ( -0.0000 -0.5000  0.0000) symmetry
     This is a supercell, fractional translations are disabled
 
     R & G space division:  proc/nbgrp/npool/nimage =      32
     Subspace diagonalization in iterative solution of the eigenvalue problem:
     a serial algorithm will be used


     Molecule # 1 for H2O read from file:
     /beegfs/hotpool/mano/rism/RISM_example/pseudo/H2O.tip5p.Nishihara.MOL
     Density:
         0.23069113E+02 cell^-1
         0.49533751E-02 bohr^-3
         0.55506881E+02 mol/L
         0.99997200E+00 g/cm^3
     Permittivity:
        78.500000
     Number of atoms:   5
     Atoms:
       #  atom      X (angs)      Y (angs)      Z (angs)      Q (e)         E (kcal/mol)  S (angs)
       1  O/h2o     0.00000000   -0.06556000    0.00000000    0.00000000    0.16000000    3.12000000
       2  H/h2o     0.75695000    0.52032000    0.00000000    0.24100000    0.04600000    1.00000000
       3  H/h2o    -0.75695000    0.52032000    0.00000000    0.24100000    0.04600000    1.00000000
       4  L/h2o     0.00000000   -0.46971000    0.57154000   -0.24100000    0.04600000    1.80000000
       5  L/h2o     0.00000000   -0.46971000   -0.57154000   -0.24100000    0.04600000    1.80000000


     Molecule # 2 for K+ read from file:
     /beegfs/hotpool/mano/rism/RISM_example/pseudo/K+.Hagiwara.MOL
     Density:
         0.41560816E+00 cell^-1
         0.89238937E-04 bohr^-3
         0.10000000E+01 mol/L
         0.39098300E-01 g/cm^3
     Number of atoms:   1
     Atoms:
       #  atom      X (angs)      Y (angs)      Z (angs)      Q (e)         E (kcal/mol)  S (angs)
       1  K         0.00000000    0.00000000    0.00000000    1.00000000    0.00032800    4.93462800


     Molecule # 3 for OH- read from file:
     /beegfs/hotpool/mano/rism/RISM_example/pseudo/OH-.oplsaa.MOL
     Density:
         0.41560816E+00 cell^-1
         0.89238937E-04 bohr^-3
         0.10000000E+01 mol/L
         0.17007340E-01 g/cm^3
     Number of atoms:   2
     Atoms:
       #  atom      X (angs)      Y (angs)      Z (angs)      Q (e)         E (kcal/mol)  S (angs)
       1  O/oh      0.00000000    0.00000000    0.00000000   -1.30000000    0.25000000    3.20000000
       2  H/oh      0.95300000    0.00000000    0.00000000    0.30000000    0.04600000    1.00000000


     1D-RISM info
     ------------
     closure equation        =           KH
     temperature             =     300.0000  kelvin
     coulomb smearing radius =       2.0000  bohr
     number of solvent sites =            8
     number of grids         =         5973
     maximum of R-space      =     999.8326  bohr
     maximum of G-space      =      18.7632  bohr^-1
     number of iterations    =        15000
     convergence threshold   =      1.0E-08
     Gaussian width of bonds =       0.3162  bohr
     size of MDIIS           =           20
     step of MDIIS           =       0.2000
     number of processes     =           32


     Correlation function is read from file


     1D-RISM Calculation

     iter. #     1  RMS(g-h-1)= 9.990E-09  nbox=  0  T=  300.00K

     End of 1D-RISM calculation


     convergence has been achieved in     1 iterations


     Chemical potential of solvation

     H2O        H2O        Closure      0.144018E+01 kcal/mol
                           GaussFluct  -0.702227E+01 kcal/mol

                K+         Closure     -0.280526E+00 kcal/mol
                           GaussFluct  -0.350066E+00 kcal/mol

                OH-        Closure     -0.749876E+00 kcal/mol
                           GaussFluct  -0.841417E+00 kcal/mol

                Total      Closure      0.409778E+00 kcal/mol
                           GaussFluct  -0.821376E+01 kcal/mol

     K+         H2O        Closure     -0.155711E+02 kcal/mol
                           GaussFluct  -0.194311E+02 kcal/mol

                K+         Closure      0.351545E+06 kcal/mol
                           GaussFluct   0.351545E+06 kcal/mol

                OH-        Closure     -0.351595E+06 kcal/mol
                           GaussFluct  -0.351595E+06 kcal/mol

                Total      Closure     -0.662661E+02 kcal/mol
                           GaussFluct  -0.701841E+02 kcal/mol

     OH-        H2O        Closure     -0.416233E+02 kcal/mol
                           GaussFluct  -0.467044E+02 kcal/mol

                K+         Closure     -0.351595E+06 kcal/mol
                           GaussFluct  -0.351595E+06 kcal/mol

                OH-        Closure      0.351544E+06 kcal/mol
                           GaussFluct   0.351544E+06 kcal/mol

                Total      Closure     -0.925525E+02 kcal/mol
                           GaussFluct  -0.977562E+02 kcal/mol

 
     Parallelization info
     --------------------
     sticks:   dense  smooth     PW     G-vecs:    dense   smooth      PW
     Min          65      32      9                14054     4956     765
     Max          66      33     10                14087     4993     792
     Sum        2083    1039    301               450233   159127   24819
 
     Using Slab Decomposition
 


     bravais-lattice index     =            0
     lattice parameter (alat)  =       9.7396  a.u.
     unit-cell volume          =    4657.2513 (a.u.)^3
     number of atoms/cell      =           12
     number of atomic types    =            1
     number of electrons       =       228.20
     number of Kohn-Sham states=          137
     kinetic-energy cutoff     =      40.0000  Ry
     charge density cutoff     =     320.0000  Ry
     scf convergence threshold =      1.0E-06
     mixing beta               =       0.1000
     number of iterations used =            8  plain     mixing
     Exchange-correlation= SLA  PW   PBE  PBE
                           (   1   4   3   4   0   0   0)

     Effective Screening Medium Method
     =================================
     Boundary Conditions: Vacuum-Slab-Vacuum
     total charge in unit cell        =  -0.2000
     grid points for fit at edges     =        4 
 

     celldm(1)=   9.739563  celldm(2)=   0.000000  celldm(3)=   0.000000
     celldm(4)=   0.000000  celldm(5)=   0.000000  celldm(6)=   0.000000

     crystal axes: (cart. coord. in units of alat)
               a(1) = (   1.000000   0.000000   0.000000 )  
               a(2) = (   0.500000   0.866025   0.000000 )  
               a(3) = (   0.000000   0.000000   5.820773 )  

     reciprocal axes: (cart. coord. in units 2 pi/alat)
               b(1) = (  1.000000 -0.577350  0.000000 )  
               b(2) = (  0.000000  1.154701  0.000000 )  
               b(3) = (  0.000000  0.000000  0.171798 )  


     PseudoPot. # 1 for Cu read from file:
     /beegfs/hotpool/mano/rism/RISM_example/pseudo/cu_pbe_v1.2.uspp.F.UPF
     MD5 check sum: 6e991ff952a84172a2a52a1c1e996048
     Pseudo is Ultrasoft + core correction, Zval = 19.0
     Generated by new atomic code, or converted to UPF format
     Using radial grid of  867 points,  6 beta functions with: 
                l(1) =   0
                l(2) =   0
                l(3) =   1
                l(4) =   1
                l(5) =   2
                l(6) =   2
     Q(r) pseudized with  8 coefficients,  rinner =    1.150   1.150   1.150
                                                       1.150   1.150

     atomic species   valence    mass     pseudopotential
     Cu               19.00    63.54600     Cu( 1.00)

     No symmetry found



   Cartesian axes

     site n.     atom                  positions (alat units)
         1        Cu     tau(   1) = (   0.0000000   0.0000000  -0.4043952  )
         2        Cu     tau(   2) = (   0.5000000   0.2886751   0.0038531  )
         3        Cu     tau(   3) = (   0.2500000   0.1443376   0.4121014  )
         4        Cu     tau(   4) = (   0.2500000   0.4330127  -0.4043952  )
         5        Cu     tau(   5) = (   0.7500000   0.7216878   0.0038531  )
         6        Cu     tau(   6) = (   0.5000000   0.5773503   0.4121014  )
         7        Cu     tau(   7) = (   0.5000000   0.0000000  -0.4043952  )
         8        Cu     tau(   8) = (   1.0000000   0.2886751   0.0038531  )
         9        Cu     tau(   9) = (   0.7500000   0.1443376   0.4121014  )
        10        Cu     tau(  10) = (   0.7500000   0.4330127  -0.4043952  )
        11        Cu     tau(  11) = (   1.2500000   0.7216878   0.0038531  )
        12        Cu     tau(  12) = (   1.0000000   0.5773503   0.4121014  )

     number of k points=     8  Gaussian smearing, width (Ry)=  0.0100
                       cart. coord. in units 2pi/alat
        k(    1) = (   0.1250000   0.0721688   0.0000000), wk =   0.2500000
        k(    2) = (   0.1250000   0.3608439   0.0000000), wk =   0.2500000
        k(    3) = (   0.1250000  -0.5051815   0.0000000), wk =   0.2500000
        k(    4) = (   0.1250000  -0.2165064   0.0000000), wk =   0.2500000
        k(    5) = (   0.3750000  -0.0721688   0.0000000), wk =   0.2500000
        k(    6) = (   0.3750000   0.2165064   0.0000000), wk =   0.2500000
        k(    7) = (   0.3750000  -0.6495191   0.0000000), wk =   0.2500000
        k(    8) = (   0.3750000  -0.3608439   0.0000000), wk =   0.2500000

     Dense  grid:   450233 G-vectors     FFT dimensions: (  60,  60, 324)

     Smooth grid:   159127 G-vectors     FFT dimensions: (  40,  40, 240)

     Estimated max dynamical RAM per process >      71.06 MB

     Estimated total dynamical RAM >       2.22 GB

     Solute:
       # atom     E (kcal/mol)  S (angs)
       1  Cu      0.00500000    3.11369102    given
       2  Cu      0.00500000    3.11369102    given
       3  Cu      0.00500000    3.11369102    given
       4  Cu      0.00500000    3.11369102    given
       5  Cu      0.00500000    3.11369102    given
       6  Cu      0.00500000    3.11369102    given
       7  Cu      0.00500000    3.11369102    given
       8  Cu      0.00500000    3.11369102    given
       9  Cu      0.00500000    3.11369102    given
      10  Cu      0.00500000    3.11369102    given
      11  Cu      0.00500000    3.11369102    given
      12  Cu      0.00500000    3.11369102    given

     Wall:
       Density =    0.01000000  bohr^-3
       E       =    0.10000000  kcal/mol
       S       =    4.00000000  angs


     Laue-RISM info
     --------------
     closure equation        =           KH
     temperature             =     300.0000  kelvin
     coulomb smearing radius =       2.0000  bohr
     number of solvent sites =            6
     solvent sites           =    O/h2o   H/h2o   L/h2o       K
     solvent sites           =     O/oh    H/oh
     number of iterations    =        15000
     convergence threshold   =      1.0E-06
     convergence level       =       0.7000
     size of MDIIS           =           20
     step of MDIIS           =       0.1000
     solvent cutoff          =     160.0000  Ry
     Custom grid:   159127 G-vectors     FFT dimensions: (  40,  40, 240)

     Boundary Conditions        : Vacuum-Slab-Solvent
     unit-cell (in bohr)        : [ -28.345892  28.345892]
     expand-cell (in bohr)      : [ -28.345892  89.761991]
     solvent of right (in bohr) : [   0.000000  89.761991]
     buffer  of right (in bohr) : [  -4.015668   0.000000]
     repulsive wall (in bohr)   : [  -Infinity  -2.286274]
     reference of potential     : right-hand side
     #grids to fit at edges of unit-cell =    4
     Laue grid:     1039 Gxy-vectors     FFT dimensions: (  40,  40, 500)


     The initial density is read from file :
     ./output/opt.save/charge-density


     starting charge     228.1000, renormalised to     228.2000

     Correlation function is read from file


     negative rho (up, down):  1.566E-03 0.000E+00

     Laue-RISM Calculation

     convergence threshold    = 1.585E-05
     iter. #     1  RMS(g-h-1)= 5.190E-03  nbox=  0
     iter. #    11  RMS(g-h-1)= 9.226E-04  nbox= 10
     iter. #    21  RMS(g-h-1)= 7.157E-04  nbox= 20
     iter. #    31  RMS(g-h-1)= 6.728E-04  nbox=  2
     iter. #    41  RMS(g-h-1)= 6.569E-04  nbox= 12
     iter. #    51  RMS(g-h-1)= 6.104E-04  nbox=  6
     iter. #    61  RMS(g-h-1)= 5.821E-04  nbox= 16
     iter. #    71  RMS(g-h-1)= 5.442E-04  nbox= 10
     iter. #    81  RMS(g-h-1)= 5.119E-04  nbox=  4
     iter. #    91  RMS(g-h-1)= 4.577E-04  nbox= 14
     iter. #   101  RMS(g-h-1)= 4.346E-04  nbox=  8
     iter. #   111  RMS(g-h-1)= 4.210E-04  nbox=  2
     iter. #   121  RMS(g-h-1)= 4.122E-04  nbox= 12
     iter. #   131  RMS(g-h-1)= 3.980E-04  nbox=  6
     iter. #   141  RMS(g-h-1)= 3.714E-04  nbox= 16
     iter. #   151  RMS(g-h-1)= 3.464E-04  nbox= 10
     iter. #   161  RMS(g-h-1)= 3.209E-04  nbox=  4
     iter. #   171  RMS(g-h-1)= 2.893E-04  nbox= 14
     iter. #   181  RMS(g-h-1)= 2.464E-04  nbox=  8
     iter. #   191  RMS(g-h-1)= 2.132E-04  nbox=  2
     iter. #   201  RMS(g-h-1)= 1.925E-04  nbox= 12
     iter. #   211  RMS(g-h-1)= 1.823E-04  nbox=  6
     iter. #   221  RMS(g-h-1)= 1.750E-04  nbox= 16
     iter. #   231  RMS(g-h-1)= 1.696E-04  nbox= 10
     iter. #   241  RMS(g-h-1)= 1.661E-04  nbox=  4
     iter. #   251  RMS(g-h-1)= 1.635E-04  nbox= 14
     iter. #   261  RMS(g-h-1)= 1.598E-04  nbox=  8
     iter. #   271  RMS(g-h-1)= 1.569E-04  nbox=  2
     iter. #   281  RMS(g-h-1)= 1.504E-04  nbox= 12
     iter. #   291  RMS(g-h-1)= 1.477E-04  nbox=  6
     iter. #   301  RMS(g-h-1)= 1.442E-04  nbox= 16
     iter. #   311  RMS(g-h-1)= 1.400E-04  nbox= 10
     iter. #   321  RMS(g-h-1)= 1.358E-04  nbox=  4
     iter. #   331  RMS(g-h-1)= 1.271E-04  nbox= 14
     iter. #   341  RMS(g-h-1)= 1.210E-04  nbox=  8
     iter. #   351  RMS(g-h-1)= 1.146E-04  nbox=  2
     iter. #   361  RMS(g-h-1)= 1.073E-04  nbox= 12
     iter. #   371  RMS(g-h-1)= 1.033E-04  nbox=  6
     iter. #   381  RMS(g-h-1)= 9.909E-05  nbox= 16
     iter. #   391  RMS(g-h-1)= 9.563E-05  nbox= 10
     iter. #   401  RMS(g-h-1)= 9.106E-05  nbox=  4
     iter. #   411  RMS(g-h-1)= 8.856E-05  nbox= 14
     iter. #   421  RMS(g-h-1)= 8.745E-05  nbox=  8
     iter. #   431  RMS(g-h-1)= 8.559E-05  nbox=  2
     iter. #   441  RMS(g-h-1)= 8.273E-05  nbox= 12
     iter. #   451  RMS(g-h-1)= 7.955E-05  nbox=  6
     iter. #   461  RMS(g-h-1)= 7.638E-05  nbox= 16
     iter. #   471  RMS(g-h-1)= 7.398E-05  nbox= 10
     iter. #   481  RMS(g-h-1)= 7.092E-05  nbox=  4
     iter. #   491  RMS(g-h-1)= 6.743E-05  nbox= 14
     iter. #   501  RMS(g-h-1)= 6.483E-05  nbox=  8
     iter. #   511  RMS(g-h-1)= 6.199E-05  nbox=  2
     iter. #   521  RMS(g-h-1)= 5.887E-05  nbox= 12
     iter. #   531  RMS(g-h-1)= 5.633E-05  nbox=  6
     iter. #   541  RMS(g-h-1)= 5.308E-05  nbox= 16
     iter. #   551  RMS(g-h-1)= 5.085E-05  nbox= 10
     iter. #   561  RMS(g-h-1)= 4.796E-05  nbox=  4
     iter. #   571  RMS(g-h-1)= 4.630E-05  nbox= 14
     iter. #   581  RMS(g-h-1)= 4.230E-05  nbox=  8
     iter. #   591  RMS(g-h-1)= 3.843E-05  nbox=  2
     iter. #   601  RMS(g-h-1)= 3.545E-05  nbox= 12
     iter. #   611  RMS(g-h-1)= 3.320E-05  nbox=  6
     iter. #   621  RMS(g-h-1)= 3.080E-05  nbox= 16
     iter. #   631  RMS(g-h-1)= 2.897E-05  nbox= 10
     iter. #   641  RMS(g-h-1)= 2.730E-05  nbox=  4
     iter. #   651  RMS(g-h-1)= 2.593E-05  nbox= 14
     iter. #   661  RMS(g-h-1)= 2.460E-05  nbox=  8
     iter. #   671  RMS(g-h-1)= 2.333E-05  nbox=  2
     iter. #   681  RMS(g-h-1)= 2.219E-05  nbox= 12
     iter. #   691  RMS(g-h-1)= 2.126E-05  nbox=  6
     iter. #   701  RMS(g-h-1)= 2.058E-05  nbox= 16
     iter. #   711  RMS(g-h-1)= 2.030E-05  nbox= 10
     iter. #   721  RMS(g-h-1)= 2.007E-05  nbox=  4
     iter. #   731  RMS(g-h-1)= 1.968E-05  nbox= 14
     iter. #   741  RMS(g-h-1)= 1.926E-05  nbox=  8
     iter. #   751  RMS(g-h-1)= 1.865E-05  nbox=  2
     iter. #   761  RMS(g-h-1)= 1.785E-05  nbox= 12
     iter. #   771  RMS(g-h-1)= 1.705E-05  nbox=  6
     iter. #   781  RMS(g-h-1)= 1.603E-05  nbox= 16
     iter. #   784  RMS(g-h-1)= 1.573E-05  nbox=  3

     End of Laue-RISM calculation


     convergence has been achieved in   784 iterations


     solvent charge    0.19806, renormalised to    0.20000

     Total number of solvent (in expand-cell)
     H2O           32.414482
     K+             0.839408
     OH-            0.639696

     Total charge of solvent (in expand-cell)
     H2O           -0.000065 e
     K+             0.839408 e
     OH-           -0.641281 e
     Total          0.198062 e

     Chemical potential of solvation (in expand-cell)
     H2O        GaussFluct   0.461885E+01 kcal/mol
     K+         GaussFluct   0.271019E+03 kcal/mol
     OH-        GaussFluct  -0.266279E+03 kcal/mol
     Total      GaussFluct   0.935883E+01 kcal/mol

     Starting wfcs from file

     total cpu time spent up to now is      142.3 secs

     Self-consistent Calculation

     iteration #  1     ecut=    40.00 Ry     beta= 0.10
     Davidson diagonalization with overlap
     c_bands:  2 eigenvalues not converged
     c_bands:  5 eigenvalues not converged
     c_bands:  5 eigenvalues not converged
     c_bands:  3 eigenvalues not converged
     c_bands:  5 eigenvalues not converged
     c_bands:  1 eigenvalues not converged
     c_bands:  2 eigenvalues not converged
     c_bands:  5 eigenvalues not converged
     ethr =  1.00E-05,  avg # of iterations = 45.0

     negative rho (up, down):  1.537E-03 0.000E+00

     Laue-RISM Calculation

     convergence threshold    = 1.585E-05
     iter. #     1  RMS(g-h-1)= 2.353E-02  nbox=  0
     iter. #    11  RMS(g-h-1)= 5.710E-03  nbox= 10
     iter. #    21  RMS(g-h-1)= 3.915E-03  nbox= 20
     iter. #    31  RMS(g-h-1)= 3.130E-03  nbox= 20
     iter. #    41  RMS(g-h-1)= 2.841E-03  nbox= 20
     iter. #    51  RMS(g-h-1)= 2.281E-03  nbox= 11
     iter. #    61  RMS(g-h-1)= 1.843E-03  nbox=  5
     iter. #    71  RMS(g-h-1)= 1.517E-03  nbox= 15
     iter. #    81  RMS(g-h-1)= 1.370E-03  nbox=  9
     iter. #    91  RMS(g-h-1)= 1.293E-03  nbox=  3
     iter. #   101  RMS(g-h-1)= 1.186E-03  nbox= 13
     iter. #   111  RMS(g-h-1)= 1.101E-03  nbox=  7
     iter. #   121  RMS(g-h-1)= 1.020E-03  nbox= 17
     iter. #   131  RMS(g-h-1)= 9.520E-04  nbox= 11
     iter. #   141  RMS(g-h-1)= 9.025E-04  nbox=  5
     iter. #   151  RMS(g-h-1)= 8.478E-04  nbox= 15
     iter. #   161  RMS(g-h-1)= 7.957E-04  nbox=  9
     iter. #   171  RMS(g-h-1)= 7.383E-04  nbox=  3
     iter. #   181  RMS(g-h-1)= 6.933E-04  nbox= 13
     iter. #   191  RMS(g-h-1)= 6.601E-04  nbox=  7
     iter. #   201  RMS(g-h-1)= 6.234E-04  nbox= 17
     iter. #   211  RMS(g-h-1)= 6.040E-04  nbox= 11
     iter. #   221  RMS(g-h-1)= 5.907E-04  nbox=  5
     iter. #   231  RMS(g-h-1)= 5.758E-04  nbox= 15
     iter. #   241  RMS(g-h-1)= 5.634E-04  nbox=  9
     iter. #   251  RMS(g-h-1)= 5.345E-04  nbox=  3
     iter. #   261  RMS(g-h-1)= 5.030E-04  nbox= 13
     iter. #   271  RMS(g-h-1)= 4.645E-04  nbox=  7
     iter. #   281  RMS(g-h-1)= 4.470E-04  nbox= 17
     iter. #   291  RMS(g-h-1)= 4.258E-04  nbox= 11
     iter. #   301  RMS(g-h-1)= 3.969E-04  nbox=  5
     iter. #   311  RMS(g-h-1)= 3.753E-04  nbox= 15
     iter. #   321  RMS(g-h-1)= 3.626E-04  nbox=  9
     iter. #   331  RMS(g-h-1)= 3.461E-04  nbox=  3
     iter. #   341  RMS(g-h-1)= 3.350E-04  nbox= 13
     iter. #   351  RMS(g-h-1)= 3.212E-04  nbox=  7
     iter. #   361  RMS(g-h-1)= 3.065E-04  nbox= 17
     iter. #   371  RMS(g-h-1)= 2.900E-04  nbox= 11
     iter. #   381  RMS(g-h-1)= 2.789E-04  nbox=  5
     iter. #   391  RMS(g-h-1)= 2.684E-04  nbox= 15
     iter. #   401  RMS(g-h-1)= 2.456E-04  nbox=  9
     iter. #   411  RMS(g-h-1)= 2.370E-04  nbox=  3
     iter. #   421  RMS(g-h-1)= 2.225E-04  nbox= 13
     iter. #   431  RMS(g-h-1)= 2.105E-04  nbox=  7
     iter. #   441  RMS(g-h-1)= 1.917E-04  nbox= 17
     iter. #   451  RMS(g-h-1)= 1.793E-04  nbox= 11
     iter. #   461  RMS(g-h-1)= 1.699E-04  nbox=  5
     iter. #   471  RMS(g-h-1)= 1.622E-04  nbox= 15
     iter. #   481  RMS(g-h-1)= 1.567E-04  nbox=  9
     iter. #   491  RMS(g-h-1)= 1.527E-04  nbox=  3
     iter. #   501  RMS(g-h-1)= 1.475E-04  nbox= 13
     iter. #   511  RMS(g-h-1)= 1.430E-04  nbox=  7
     iter. #   521  RMS(g-h-1)= 1.364E-04  nbox= 17
     iter. #   531  RMS(g-h-1)= 1.285E-04  nbox= 11
     iter. #   541  RMS(g-h-1)= 1.212E-04  nbox=  5
     iter. #   551  RMS(g-h-1)= 1.118E-04  nbox= 15
     iter. #   561  RMS(g-h-1)= 1.012E-04  nbox=  9
     iter. #   571  RMS(g-h-1)= 9.343E-05  nbox=  3
     iter. #   581  RMS(g-h-1)= 8.799E-05  nbox= 13
     iter. #   591  RMS(g-h-1)= 8.276E-05  nbox=  7
     iter. #   601  RMS(g-h-1)= 7.933E-05  nbox= 17
     iter. #   611  RMS(g-h-1)= 7.534E-05  nbox= 11
     iter. #   621  RMS(g-h-1)= 7.208E-05  nbox=  5
     iter. #   631  RMS(g-h-1)= 6.754E-05  nbox= 15
     iter. #   641  RMS(g-h-1)= 6.442E-05  nbox=  9
     iter. #   651  RMS(g-h-1)= 6.082E-05  nbox=  3
     iter. #   661  RMS(g-h-1)= 5.846E-05  nbox= 13
     iter. #   671  RMS(g-h-1)= 5.540E-05  nbox=  7
     iter. #   681  RMS(g-h-1)= 5.130E-05  nbox= 17
     iter. #   691  RMS(g-h-1)= 4.915E-05  nbox= 11
     iter. #   701  RMS(g-h-1)= 4.663E-05  nbox=  5
     iter. #   711  RMS(g-h-1)= 4.388E-05  nbox= 15
     iter. #   721  RMS(g-h-1)= 3.975E-05  nbox=  9
     iter. #   731  RMS(g-h-1)= 3.690E-05  nbox=  3
     iter. #   741  RMS(g-h-1)= 3.317E-05  nbox= 13
     iter. #   751  RMS(g-h-1)= 2.940E-05  nbox=  7
     iter. #   761  RMS(g-h-1)= 2.621E-05  nbox= 17
     iter. #   771  RMS(g-h-1)= 2.383E-05  nbox= 11
     iter. #   781  RMS(g-h-1)= 2.182E-05  nbox=  5
     iter. #   791  RMS(g-h-1)= 1.959E-05  nbox= 15
     iter. #   801  RMS(g-h-1)= 1.814E-05  nbox=  9
     iter. #   811  RMS(g-h-1)= 1.780E-05  nbox=  3
     iter. #   821  RMS(g-h-1)= 1.683E-05  nbox= 13
     iter. #   831  RMS(g-h-1)= 1.581E-05  nbox=  7

     End of Laue-RISM calculation


     convergence has been achieved in   831 iterations


     solvent charge    0.20027, renormalised to    0.20000

     Total number of solvent (in expand-cell)
     H2O           32.401853
     K+             0.845443
     OH-            0.645686

     Total charge of solvent (in expand-cell)
     H2O           -0.000002 e
     K+             0.845443 e
     OH-           -0.645175 e
     Total          0.200266 e

     Chemical potential of solvation (in expand-cell)
     H2O        GaussFluct   0.484622E+01 kcal/mol
     K+         GaussFluct   0.209762E+03 kcal/mol
     OH-        GaussFluct  -0.213633E+03 kcal/mol
     Total      GaussFluct   0.974855E+00 kcal/mol


     total cpu time spent up to now is      202.7 secs

     total energy              =   -4844.53582440 Ry
     estimated scf accuracy    <       3.21524814 Ry

     iteration #  2     ecut=    40.00 Ry     beta= 0.10
     Davidson diagonalization with overlap
     ethr =  1.41E-03,  avg # of iterations =  3.6

     negative rho (up, down):  1.507E-03 0.000E+00

     Laue-RISM Calculation

     convergence threshold    = 1.585E-05
     iter. #     1  RMS(g-h-1)= 1.750E-02  nbox=  0
     iter. #    11  RMS(g-h-1)= 3.740E-03  nbox= 10
     iter. #    21  RMS(g-h-1)= 2.661E-03  nbox= 20
     iter. #    31  RMS(g-h-1)= 2.293E-03  nbox= 20
     iter. #    41  RMS(g-h-1)= 1.901E-03  nbox=  5
     iter. #    51  RMS(g-h-1)= 1.524E-03  nbox= 15
     iter. #    61  RMS(g-h-1)= 1.279E-03  nbox=  9
     iter. #    71  RMS(g-h-1)= 9.269E-04  nbox= 19
     iter. #    81  RMS(g-h-1)= 8.922E-04  nbox= 20
     iter. #    91  RMS(g-h-1)= 8.814E-04  nbox=  9
     iter. #   101  RMS(g-h-1)= 8.292E-04  nbox=  3
     iter. #   111  RMS(g-h-1)= 7.937E-04  nbox= 13
     iter. #   121  RMS(g-h-1)= 7.442E-04  nbox=  7
     iter. #   131  RMS(g-h-1)= 6.953E-04  nbox= 17
     iter. #   141  RMS(g-h-1)= 6.084E-04  nbox= 11
     iter. #   151  RMS(g-h-1)= 5.311E-04  nbox=  5
     iter. #   161  RMS(g-h-1)= 4.877E-04  nbox= 15
     iter. #   171  RMS(g-h-1)= 4.647E-04  nbox=  9
     iter. #   181  RMS(g-h-1)= 4.245E-04  nbox=  3
     iter. #   191  RMS(g-h-1)= 4.003E-04  nbox= 13
     iter. #   201  RMS(g-h-1)= 3.685E-04  nbox=  7
     iter. #   211  RMS(g-h-1)= 3.394E-04  nbox= 17
     iter. #   221  RMS(g-h-1)= 3.205E-04  nbox= 11
     iter. #   231  RMS(g-h-1)= 2.771E-04  nbox=  5
     iter. #   241  RMS(g-h-1)= 2.885E-04  nbox= 15
     iter. #   251  RMS(g-h-1)= 2.447E-04  nbox=  9
     iter. #   261  RMS(g-h-1)= 2.056E-04  nbox= 19
     iter. #   271  RMS(g-h-1)= 1.919E-04  nbox=  6
     iter. #   281  RMS(g-h-1)= 1.861E-04  nbox= 16
     iter. #   291  RMS(g-h-1)= 1.833E-04  nbox= 10
     iter. #   301  RMS(g-h-1)= 1.832E-04  nbox=  4
     iter. #   311  RMS(g-h-1)= 1.837E-04  nbox= 14
     iter. #   321  RMS(g-h-1)= 1.828E-04  nbox=  8
     iter. #   331  RMS(g-h-1)= 1.823E-04  nbox=  2
     iter. #   341  RMS(g-h-1)= 1.796E-04  nbox= 12
     iter. #   351  RMS(g-h-1)= 1.767E-04  nbox=  6
     iter. #   361  RMS(g-h-1)= 1.759E-04  nbox= 16
     iter. #   371  RMS(g-h-1)= 1.709E-04  nbox= 10
     iter. #   381  RMS(g-h-1)= 1.652E-04  nbox=  4
     iter. #   391  RMS(g-h-1)= 1.624E-04  nbox= 14
     iter. #   401  RMS(g-h-1)= 1.568E-04  nbox=  8
     iter. #   411  RMS(g-h-1)= 1.452E-04  nbox=  2
     iter. #   421  RMS(g-h-1)= 1.406E-04  nbox= 12
     iter. #   431  RMS(g-h-1)= 1.330E-04  nbox=  6
     iter. #   441  RMS(g-h-1)= 1.267E-04  nbox= 16
     iter. #   451  RMS(g-h-1)= 1.225E-04  nbox= 10
     iter. #   461  RMS(g-h-1)= 1.175E-04  nbox=  4
     iter. #   471  RMS(g-h-1)= 1.129E-04  nbox= 14
     iter. #   481  RMS(g-h-1)= 1.100E-04  nbox=  8
     iter. #   491  RMS(g-h-1)= 1.085E-04  nbox=  2
     iter. #   501  RMS(g-h-1)= 1.043E-04  nbox= 12
     iter. #   511  RMS(g-h-1)= 9.788E-05  nbox=  6
     iter. #   521  RMS(g-h-1)= 9.267E-05  nbox= 16
     iter. #   531  RMS(g-h-1)= 8.766E-05  nbox= 10
     iter. #   541  RMS(g-h-1)= 8.292E-05  nbox=  4
     iter. #   551  RMS(g-h-1)= 7.863E-05  nbox= 14
     iter. #   561  RMS(g-h-1)= 7.522E-05  nbox=  8
     iter. #   571  RMS(g-h-1)= 7.238E-05  nbox=  2
     iter. #   581  RMS(g-h-1)= 6.862E-05  nbox= 12
     iter. #   591  RMS(g-h-1)= 6.559E-05  nbox=  6
     iter. #   601  RMS(g-h-1)= 6.397E-05  nbox= 16
     iter. #   611  RMS(g-h-1)= 5.940E-05  nbox= 10
     iter. #   621  RMS(g-h-1)= 5.520E-05  nbox=  4
     iter. #   631  RMS(g-h-1)= 5.181E-05  nbox= 14
     iter. #   641  RMS(g-h-1)= 4.795E-05  nbox=  8
     iter. #   651  RMS(g-h-1)= 4.239E-05  nbox=  2
     iter. #   661  RMS(g-h-1)= 3.802E-05  nbox= 12
     iter. #   671  RMS(g-h-1)= 3.406E-05  nbox=  6
     iter. #   681  RMS(g-h-1)= 3.041E-05  nbox= 16
     iter. #   691  RMS(g-h-1)= 2.667E-05  nbox= 10
     iter. #   701  RMS(g-h-1)= 2.403E-05  nbox=  4
     iter. #   711  RMS(g-h-1)= 2.168E-05  nbox= 14
     iter. #   721  RMS(g-h-1)= 2.005E-05  nbox=  8
     iter. #   731  RMS(g-h-1)= 1.876E-05  nbox=  2
     iter. #   741  RMS(g-h-1)= 1.732E-05  nbox= 12
     iter. #   751  RMS(g-h-1)= 1.660E-05  nbox=  6
     iter. #   761  RMS(g-h-1)= 1.604E-05  nbox= 16
     iter. #   768  RMS(g-h-1)= 1.583E-05  nbox=  7

     End of Laue-RISM calculation


     convergence has been achieved in   768 iterations


     solvent charge    0.19732, renormalised to    0.20000

     Total number of solvent (in expand-cell)
     H2O           32.401865
     K+             0.842699
     OH-            0.643939

     Total charge of solvent (in expand-cell)
     H2O           -0.000170 e
     K+             0.842699 e
     OH-           -0.645213 e
     Total          0.197315 e

     Chemical potential of solvation (in expand-cell)
     H2O        GaussFluct   0.484452E+01 kcal/mol
     K+         GaussFluct   0.248843E+03 kcal/mol
     OH-        GaussFluct  -0.247183E+03 kcal/mol
     Total      GaussFluct   0.650432E+01 kcal/mol


     total cpu time spent up to now is      247.7 secs

     total energy              =   -4844.47570530 Ry
     estimated scf accuracy    <      17.63502521 Ry

     iteration #  3     ecut=    40.00 Ry     beta= 0.10
     RMM-DIIS diagonalization
     ethr =  1.41E-03,  avg # of iterations =  2.5

     negative rho (up, down):  1.507E-03 0.000E+00

     Laue-RISM Calculation

     convergence threshold    = 8.145E-06
     iter. #     1  RMS(g-h-1)= 2.376E-03  nbox=  0
     iter. #    11  RMS(g-h-1)= 7.820E-04  nbox= 10
     iter. #    21  RMS(g-h-1)= 3.188E-04  nbox= 20
     iter. #    31  RMS(g-h-1)= 2.425E-04  nbox= 20
     iter. #    41  RMS(g-h-1)= 2.017E-04  nbox=  3
     iter. #    51  RMS(g-h-1)= 1.568E-04  nbox= 13
     iter. #    61  RMS(g-h-1)= 1.177E-04  nbox=  7
     iter. #    71  RMS(g-h-1)= 8.178E-05  nbox= 17
     iter. #    81  RMS(g-h-1)= 5.909E-05  nbox= 20
     iter. #    91  RMS(g-h-1)= 5.686E-05  nbox= 20
     iter. #   101  RMS(g-h-1)= 5.360E-05  nbox=  9
     iter. #   111  RMS(g-h-1)= 4.464E-05  nbox=  3
     iter. #   121  RMS(g-h-1)= 3.634E-05  nbox= 13
     iter. #   131  RMS(g-h-1)= 3.365E-05  nbox=  7
     iter. #   141  RMS(g-h-1)= 2.928E-05  nbox= 17
     iter. #   151  RMS(g-h-1)= 2.664E-05  nbox= 11
     iter. #   161  RMS(g-h-1)= 2.608E-05  nbox=  5
     iter. #   171  RMS(g-h-1)= 2.527E-05  nbox= 15
     iter. #   181  RMS(g-h-1)= 2.443E-05  nbox=  9
     iter. #   191  RMS(g-h-1)= 2.331E-05  nbox=  3
     iter. #   201  RMS(g-h-1)= 2.111E-05  nbox= 13
     iter. #   211  RMS(g-h-1)= 1.886E-05  nbox=  7
     iter. #   221  RMS(g-h-1)= 1.500E-05  nbox= 17
     iter. #   231  RMS(g-h-1)= 1.180E-05  nbox= 11
     iter. #   241  RMS(g-h-1)= 1.078E-05  nbox=  3
     iter. #   251  RMS(g-h-1)= 1.057E-05  nbox= 13
     iter. #   261  RMS(g-h-1)= 1.019E-05  nbox=  7
     iter. #   271  RMS(g-h-1)= 9.698E-06  nbox= 17
     iter. #   281  RMS(g-h-1)= 8.606E-06  nbox= 11
     iter. #   285  RMS(g-h-1)= 8.119E-06  nbox= 15

     End of Laue-RISM calculation


     convergence has been achieved in   285 iterations


     solvent charge    0.20023, renormalised to    0.20000

     Total number of solvent (in expand-cell)
     H2O           32.399729
     K+             0.845466
     OH-            0.645041

     Total charge of solvent (in expand-cell)
     H2O            0.000087 e
     K+             0.845466 e
     OH-           -0.645325 e
     Total          0.200228 e

     Chemical potential of solvation (in expand-cell)
     H2O        GaussFluct   0.481100E+01 kcal/mol
     K+         GaussFluct   0.248744E+03 kcal/mol
     OH-        GaussFluct  -0.247346E+03 kcal/mol
     Total      GaussFluct   0.620900E+01 kcal/mol


     total cpu time spent up to now is      265.6 secs

     total energy              =   -4845.14626334 Ry
     estimated scf accuracy    <       0.05482324 Ry

     iteration #  4     ecut=    40.00 Ry     beta= 0.10
     RMM-DIIS diagonalization
     ethr =  2.40E-05,  avg # of iterations =  2.8

     negative rho (up, down):  1.509E-03 0.000E+00

     Laue-RISM Calculation

     convergence threshold    = 1.633E-06
     iter. #     1  RMS(g-h-1)= 8.023E-04  nbox=  0
     iter. #    11  RMS(g-h-1)= 2.469E-04  nbox= 10
     iter. #    21  RMS(g-h-1)= 1.009E-04  nbox= 20
     iter. #    31  RMS(g-h-1)= 7.924E-05  nbox= 20
     iter. #    41  RMS(g-h-1)= 6.856E-05  nbox=  4
     iter. #    51  RMS(g-h-1)= 5.529E-05  nbox= 14
     iter. #    61  RMS(g-h-1)= 4.104E-05  nbox=  8
     iter. #    71  RMS(g-h-1)= 3.661E-05  nbox= 18
     iter. #    81  RMS(g-h-1)= 3.383E-05  nbox= 10
     iter. #    91  RMS(g-h-1)= 3.308E-05  nbox=  4
     iter. #   101  RMS(g-h-1)= 3.176E-05  nbox= 14
     iter. #   111  RMS(g-h-1)= 3.006E-05  nbox=  8
     iter. #   121  RMS(g-h-1)= 2.830E-05  nbox=  2
     iter. #   131  RMS(g-h-1)= 2.610E-05  nbox= 12
     iter. #   141  RMS(g-h-1)= 2.546E-05  nbox=  6
     iter. #   151  RMS(g-h-1)= 2.437E-05  nbox= 16
     iter. #   161  RMS(g-h-1)= 2.258E-05  nbox= 10
     iter. #   171  RMS(g-h-1)= 2.050E-05  nbox=  4
     iter. #   181  RMS(g-h-1)= 1.854E-05  nbox= 14
     iter. #   191  RMS(g-h-1)= 1.729E-05  nbox=  8
     iter. #   201  RMS(g-h-1)= 1.604E-05  nbox=  2
     iter. #   211  RMS(g-h-1)= 1.491E-05  nbox= 12
     iter. #   221  RMS(g-h-1)= 1.428E-05  nbox=  6
     iter. #   231  RMS(g-h-1)= 1.362E-05  nbox= 16
     iter. #   241  RMS(g-h-1)= 1.261E-05  nbox= 10
     iter. #   251  RMS(g-h-1)= 1.217E-05  nbox=  4
     iter. #   261  RMS(g-h-1)= 1.167E-05  nbox= 14
     iter. #   271  RMS(g-h-1)= 1.114E-05  nbox=  8
     iter. #   281  RMS(g-h-1)= 1.084E-05  nbox=  2
     iter. #   291  RMS(g-h-1)= 1.058E-05  nbox= 12
     iter. #   301  RMS(g-h-1)= 1.124E-05  nbox=  6
     iter. #   311  RMS(g-h-1)= 1.025E-05  nbox= 16
     iter. #   321  RMS(g-h-1)= 1.003E-05  nbox= 10
     iter. #   331  RMS(g-h-1)= 9.671E-06  nbox=  4
     iter. #   341  RMS(g-h-1)= 9.496E-06  nbox= 14
     iter. #   351  RMS(g-h-1)= 9.287E-06  nbox=  8
     iter. #   361  RMS(g-h-1)= 9.049E-06  nbox=  2
     iter. #   371  RMS(g-h-1)= 8.643E-06  nbox= 12
     iter. #   381  RMS(g-h-1)= 8.296E-06  nbox=  6
     iter. #   391  RMS(g-h-1)= 7.753E-06  nbox= 16
     iter. #   401  RMS(g-h-1)= 7.367E-06  nbox= 10
     iter. #   411  RMS(g-h-1)= 6.841E-06  nbox=  4
     iter. #   421  RMS(g-h-1)= 6.318E-06  nbox= 14
     iter. #   431  RMS(g-h-1)= 5.914E-06  nbox=  8
     iter. #   441  RMS(g-h-1)= 5.663E-06  nbox=  2
     iter. #   451  RMS(g-h-1)= 5.415E-06  nbox= 12
     iter. #   461  RMS(g-h-1)= 5.253E-06  nbox=  6
     iter. #   471  RMS(g-h-1)= 5.127E-06  nbox= 16
     iter. #   481  RMS(g-h-1)= 5.009E-06  nbox= 10
     iter. #   491  RMS(g-h-1)= 4.960E-06  nbox=  4
     iter. #   501  RMS(g-h-1)= 4.985E-06  nbox= 14
     iter. #   511  RMS(g-h-1)= 4.907E-06  nbox=  8
     iter. #   521  RMS(g-h-1)= 4.804E-06  nbox=  2
     iter. #   531  RMS(g-h-1)= 4.365E-06  nbox= 12
     iter. #   541  RMS(g-h-1)= 4.185E-06  nbox=  6
     iter. #   551  RMS(g-h-1)= 3.927E-06  nbox= 16
     iter. #   561  RMS(g-h-1)= 3.722E-06  nbox= 10
     iter. #   571  RMS(g-h-1)= 3.551E-06  nbox=  4
     iter. #   581  RMS(g-h-1)= 3.387E-06  nbox= 14
     iter. #   591  RMS(g-h-1)= 3.285E-06  nbox=  8
     iter. #   601  RMS(g-h-1)= 3.213E-06  nbox=  2
     iter. #   611  RMS(g-h-1)= 3.080E-06  nbox= 12
     iter. #   621  RMS(g-h-1)= 2.990E-06  nbox=  6
     iter. #   631  RMS(g-h-1)= 2.911E-06  nbox= 16
     iter. #   641  RMS(g-h-1)= 2.797E-06  nbox= 10
     iter. #   651  RMS(g-h-1)= 2.731E-06  nbox=  4
     iter. #   661  RMS(g-h-1)= 2.631E-06  nbox= 14
     iter. #   671  RMS(g-h-1)= 2.545E-06  nbox=  8
     iter. #   681  RMS(g-h-1)= 2.469E-06  nbox=  2
     iter. #   691  RMS(g-h-1)= 2.391E-06  nbox= 12
     iter. #   701  RMS(g-h-1)= 2.356E-06  nbox=  6
     iter. #   711  RMS(g-h-1)= 2.320E-06  nbox= 16
     iter. #   721  RMS(g-h-1)= 2.291E-06  nbox= 10
     iter. #   731  RMS(g-h-1)= 2.277E-06  nbox=  4
     iter. #   741  RMS(g-h-1)= 2.264E-06  nbox= 14
     iter. #   751  RMS(g-h-1)= 2.257E-06  nbox=  8
     iter. #   761  RMS(g-h-1)= 2.252E-06  nbox=  2
     iter. #   771  RMS(g-h-1)= 2.247E-06  nbox= 12
     iter. #   781  RMS(g-h-1)= 2.245E-06  nbox=  6
     iter. #   791  RMS(g-h-1)= 2.244E-06  nbox= 16
     iter. #   801  RMS(g-h-1)= 2.241E-06  nbox= 10
     iter. #   811  RMS(g-h-1)= 2.238E-06  nbox=  4
     iter. #   821  RMS(g-h-1)= 2.238E-06  nbox= 14
     iter. #   831  RMS(g-h-1)= 2.235E-06  nbox=  8
     iter. #   841  RMS(g-h-1)= 2.230E-06  nbox=  2
     iter. #   851  RMS(g-h-1)= 2.207E-06  nbox= 12
     iter. #   861  RMS(g-h-1)= 2.160E-06  nbox=  6
     iter. #   871  RMS(g-h-1)= 2.106E-06  nbox= 16
     iter. #   881  RMS(g-h-1)= 2.138E-06  nbox= 10
     iter. #   891  RMS(g-h-1)= 2.061E-06  nbox=  4
     iter. #   901  RMS(g-h-1)= 2.049E-06  nbox= 14
     iter. #   911  RMS(g-h-1)= 2.037E-06  nbox=  8
     iter. #   921  RMS(g-h-1)= 2.028E-06  nbox=  2
     iter. #   931  RMS(g-h-1)= 2.013E-06  nbox= 12
     iter. #   941  RMS(g-h-1)= 2.002E-06  nbox=  6
     iter. #   951  RMS(g-h-1)= 1.991E-06  nbox= 16
     iter. #   961  RMS(g-h-1)= 1.980E-06  nbox= 10
     iter. #   971  RMS(g-h-1)= 1.978E-06  nbox=  4
     iter. #   981  RMS(g-h-1)= 1.975E-06  nbox= 14
     iter. #   991  RMS(g-h-1)= 1.973E-06  nbox=  8
     iter. #  1001  RMS(g-h-1)= 1.972E-06  nbox=  2
     iter. #  1011  RMS(g-h-1)= 1.971E-06  nbox= 12
     iter. #  1021  RMS(g-h-1)= 1.970E-06  nbox=  6
     iter. #  1031  RMS(g-h-1)= 1.969E-06  nbox= 16
     iter. #  1041  RMS(g-h-1)= 1.967E-06  nbox= 10
     iter. #  1051  RMS(g-h-1)= 1.965E-06  nbox=  4
     iter. #  1061  RMS(g-h-1)= 1.959E-06  nbox= 14
     iter. #  1071  RMS(g-h-1)= 1.951E-06  nbox=  8
     iter. #  1081  RMS(g-h-1)= 1.951E-06  nbox=  2
     iter. #  1091  RMS(g-h-1)= 1.950E-06  nbox= 12
     iter. #  1101  RMS(g-h-1)= 1.947E-06  nbox=  6
     iter. #  1111  RMS(g-h-1)= 1.943E-06  nbox= 16
     iter. #  1121  RMS(g-h-1)= 1.931E-06  nbox= 10
     iter. #  1131  RMS(g-h-1)= 1.908E-06  nbox=  4
     iter. #  1141  RMS(g-h-1)= 1.863E-06  nbox= 14
     iter. #  1151  RMS(g-h-1)= 1.797E-06  nbox=  8
     iter. #  1161  RMS(g-h-1)= 1.735E-06  nbox=  2
     iter. #  1171  RMS(g-h-1)= 1.677E-06  nbox= 12
     iter. #  1179  RMS(g-h-1)= 1.632E-06  nbox=  4

     End of Laue-RISM calculation


     convergence has been achieved in  1179 iterations


     solvent charge    0.20010, renormalised to    0.20000

     Total number of solvent (in expand-cell)
     H2O           32.399517
     K+             0.845291
     OH-            0.645273

     Total charge of solvent (in expand-cell)
     H2O            0.000006 e
     K+             0.845291 e
     OH-           -0.645197 e
     Total          0.200100 e

     Chemical potential of solvation (in expand-cell)
     H2O        GaussFluct   0.480901E+01 kcal/mol
     K+         GaussFluct   0.247840E+03 kcal/mol
     OH-        GaussFluct  -0.246490E+03 kcal/mol
     Total      GaussFluct   0.615914E+01 kcal/mol


     total cpu time spent up to now is      332.9 secs

     total energy              =   -4845.14933393 Ry
     estimated scf accuracy    <       0.00561232 Ry

     iteration #  5     ecut=    40.00 Ry     beta= 0.10
     Davidson diagonalization with overlap
     c_bands:  4 eigenvalues not converged
     c_bands:  3 eigenvalues not converged
     c_bands:  4 eigenvalues not converged
     c_bands:  3 eigenvalues not converged
     c_bands:  3 eigenvalues not converged
     c_bands:  5 eigenvalues not converged
     ethr =  2.46E-06,  avg # of iterations = 38.1

     negative rho (up, down):  1.513E-03 0.000E+00

     Laue-RISM Calculation

     convergence threshold    = 1.000E-06
     iter. #     1  RMS(g-h-1)= 3.919E-04  nbox=  0
     iter. #    11  RMS(g-h-1)= 6.564E-05  nbox= 10
     iter. #    21  RMS(g-h-1)= 2.599E-05  nbox= 20
     iter. #    31  RMS(g-h-1)= 1.916E-05  nbox= 20
     iter. #    41  RMS(g-h-1)= 1.738E-05  nbox= 20
     iter. #    51  RMS(g-h-1)= 1.489E-05  nbox=  7
     iter. #    61  RMS(g-h-1)= 1.037E-05  nbox= 17
     iter. #    71  RMS(g-h-1)= 7.069E-06  nbox= 20
     iter. #    81  RMS(g-h-1)= 6.291E-06  nbox= 20
     iter. #    91  RMS(g-h-1)= 5.539E-06  nbox=  9
     iter. #   101  RMS(g-h-1)= 4.112E-06  nbox= 19
     iter. #   111  RMS(g-h-1)= 3.580E-06  nbox= 20
     iter. #   121  RMS(g-h-1)= 3.237E-06  nbox=  5
     iter. #   131  RMS(g-h-1)= 3.057E-06  nbox= 15
     iter. #   141  RMS(g-h-1)= 2.840E-06  nbox=  9
     iter. #   151  RMS(g-h-1)= 2.598E-06  nbox=  3
     iter. #   161  RMS(g-h-1)= 2.227E-06  nbox= 13
     iter. #   171  RMS(g-h-1)= 2.043E-06  nbox=  7
     iter. #   181  RMS(g-h-1)= 1.922E-06  nbox= 17
     iter. #   191  RMS(g-h-1)= 1.863E-06  nbox= 11
     iter. #   201  RMS(g-h-1)= 1.832E-06  nbox=  5
     iter. #   211  RMS(g-h-1)= 1.780E-06  nbox= 15
     iter. #   221  RMS(g-h-1)= 1.715E-06  nbox=  9
     iter. #   231  RMS(g-h-1)= 1.650E-06  nbox=  3
     iter. #   241  RMS(g-h-1)= 1.599E-06  nbox= 13
     iter. #   251  RMS(g-h-1)= 1.578E-06  nbox=  7
     iter. #   261  RMS(g-h-1)= 1.565E-06  nbox= 17
     iter. #   271  RMS(g-h-1)= 1.560E-06  nbox= 11
     iter. #   281  RMS(g-h-1)= 1.559E-06  nbox=  5
     iter. #   291  RMS(g-h-1)= 1.556E-06  nbox= 15
     iter. #   301  RMS(g-h-1)= 1.552E-06  nbox=  9
     iter. #   311  RMS(g-h-1)= 1.545E-06  nbox=  3
     iter. #   321  RMS(g-h-1)= 1.538E-06  nbox= 13
     iter. #   331  RMS(g-h-1)= 1.534E-06  nbox=  7
     iter. #   341  RMS(g-h-1)= 1.533E-06  nbox= 17
     iter. #   351  RMS(g-h-1)= 1.532E-06  nbox= 11
     iter. #   361  RMS(g-h-1)= 1.532E-06  nbox=  5
     iter. #   371  RMS(g-h-1)= 1.532E-06  nbox= 15
     iter. #   381  RMS(g-h-1)= 1.529E-06  nbox=  9
     iter. #   391  RMS(g-h-1)= 1.525E-06  nbox=  3
     iter. #   401  RMS(g-h-1)= 1.523E-06  nbox= 13
     iter. #   411  RMS(g-h-1)= 1.518E-06  nbox=  7
     iter. #   421  RMS(g-h-1)= 1.512E-06  nbox= 17
     iter. #   431  RMS(g-h-1)= 1.507E-06  nbox= 11
     iter. #   441  RMS(g-h-1)= 1.506E-06  nbox=  5
     iter. #   451  RMS(g-h-1)= 1.504E-06  nbox= 15
     iter. #   461  RMS(g-h-1)= 1.501E-06  nbox=  9
     iter. #   471  RMS(g-h-1)= 1.499E-06  nbox=  3
     iter. #   481  RMS(g-h-1)= 1.496E-06  nbox= 13
     iter. #   491  RMS(g-h-1)= 1.493E-06  nbox=  7
     iter. #   501  RMS(g-h-1)= 1.492E-06  nbox= 17
     iter. #   511  RMS(g-h-1)= 1.490E-06  nbox= 11
     iter. #   521  RMS(g-h-1)= 1.489E-06  nbox=  5
     iter. #   531  RMS(g-h-1)= 1.488E-06  nbox= 15
     iter. #   541  RMS(g-h-1)= 1.482E-06  nbox=  9
     iter. #   551  RMS(g-h-1)= 1.478E-06  nbox=  3
     iter. #   561  RMS(g-h-1)= 1.474E-06  nbox= 13
     iter. #   571  RMS(g-h-1)= 1.473E-06  nbox=  7
     iter. #   581  RMS(g-h-1)= 1.473E-06  nbox= 17
     iter. #   591  RMS(g-h-1)= 1.471E-06  nbox= 11
     iter. #   601  RMS(g-h-1)= 1.467E-06  nbox=  5
     iter. #   611  RMS(g-h-1)= 1.465E-06  nbox= 15
     iter. #   621  RMS(g-h-1)= 1.463E-06  nbox=  9
     iter. #   631  RMS(g-h-1)= 1.462E-06  nbox=  3
     iter. #   641  RMS(g-h-1)= 1.460E-06  nbox= 13
     iter. #   651  RMS(g-h-1)= 1.459E-06  nbox=  7
     iter. #   661  RMS(g-h-1)= 1.459E-06  nbox= 17
     iter. #   671  RMS(g-h-1)= 1.458E-06  nbox= 11
     iter. #   681  RMS(g-h-1)= 1.458E-06  nbox=  5
     iter. #   691  RMS(g-h-1)= 1.458E-06  nbox= 15
     iter. #   701  RMS(g-h-1)= 1.458E-06  nbox=  9
     iter. #   711  RMS(g-h-1)= 1.458E-06  nbox=  3
     iter. #   721  RMS(g-h-1)= 1.457E-06  nbox= 13
     iter. #   731  RMS(g-h-1)= 1.457E-06  nbox=  7
     iter. #   741  RMS(g-h-1)= 1.452E-06  nbox= 17
     iter. #   751  RMS(g-h-1)= 1.447E-06  nbox= 11
     iter. #   761  RMS(g-h-1)= 1.443E-06  nbox=  5
     iter. #   771  RMS(g-h-1)= 1.438E-06  nbox= 15
     iter. #   781  RMS(g-h-1)= 1.435E-06  nbox=  9
     iter. #   791  RMS(g-h-1)= 1.435E-06  nbox=  3
     iter. #   801  RMS(g-h-1)= 1.434E-06  nbox= 13
     iter. #   811  RMS(g-h-1)= 1.433E-06  nbox=  7
     iter. #   821  RMS(g-h-1)= 1.433E-06  nbox= 17
     iter. #   831  RMS(g-h-1)= 1.432E-06  nbox= 11
     iter. #   841  RMS(g-h-1)= 1.431E-06  nbox=  5
     iter. #   851  RMS(g-h-1)= 1.430E-06  nbox= 15
     iter. #   861  RMS(g-h-1)= 1.428E-06  nbox=  9
     iter. #   871  RMS(g-h-1)= 1.428E-06  nbox=  3
     iter. #   881  RMS(g-h-1)= 1.425E-06  nbox= 13
     iter. #   891  RMS(g-h-1)= 1.423E-06  nbox=  7
     iter. #   901  RMS(g-h-1)= 1.422E-06  nbox= 17
     iter. #   911  RMS(g-h-1)= 1.422E-06  nbox= 11
     iter. #   921  RMS(g-h-1)= 1.421E-06  nbox=  5
     iter. #   931  RMS(g-h-1)= 1.421E-06  nbox= 15
     iter. #   941  RMS(g-h-1)= 1.420E-06  nbox=  9
     iter. #   951  RMS(g-h-1)= 1.420E-06  nbox=  3
     iter. #   961  RMS(g-h-1)= 1.420E-06  nbox= 13
     iter. #   971  RMS(g-h-1)= 1.420E-06  nbox=  7
     iter. #   981  RMS(g-h-1)= 1.420E-06  nbox= 17
     iter. #   991  RMS(g-h-1)= 1.419E-06  nbox= 11
     iter. #  1001  RMS(g-h-1)= 1.415E-06  nbox=  5
     iter. #  1011  RMS(g-h-1)= 1.414E-06  nbox= 15
     iter. #  1021  RMS(g-h-1)= 1.413E-06  nbox=  9
     iter. #  1031  RMS(g-h-1)= 1.413E-06  nbox=  3
     iter. #  1041  RMS(g-h-1)= 1.414E-06  nbox= 13
     iter. #  1051  RMS(g-h-1)= 1.413E-06  nbox=  7
     iter. #  1061  RMS(g-h-1)= 1.413E-06  nbox= 17
     iter. #  1071  RMS(g-h-1)= 1.412E-06  nbox= 11
     iter. #  1081  RMS(g-h-1)= 1.412E-06  nbox=  5
     iter. #  1091  RMS(g-h-1)= 1.415E-06  nbox= 15
     iter. #  1101  RMS(g-h-1)= 1.411E-06  nbox=  9
     iter. #  1111  RMS(g-h-1)= 1.411E-06  nbox=  3
     iter. #  1121  RMS(g-h-1)= 1.412E-06  nbox= 13
     iter. #  1131  RMS(g-h-1)= 1.409E-06  nbox=  7
     iter. #  1141  RMS(g-h-1)= 1.409E-06  nbox= 17
     iter. #  1151  RMS(g-h-1)= 1.408E-06  nbox= 11
     iter. #  1161  RMS(g-h-1)= 1.407E-06  nbox=  5
     iter. #  1171  RMS(g-h-1)= 1.418E-06  nbox= 15
     iter. #  1181  RMS(g-h-1)= 1.407E-06  nbox=  9
     iter. #  1191  RMS(g-h-1)= 1.406E-06  nbox=  3
     iter. #  1201  RMS(g-h-1)= 1.406E-06  nbox= 13
     iter. #  1211  RMS(g-h-1)= 1.405E-06  nbox=  7
     iter. #  1221  RMS(g-h-1)= 1.403E-06  nbox= 17
     iter. #  1231  RMS(g-h-1)= 1.401E-06  nbox= 11
     iter. #  1241  RMS(g-h-1)= 1.401E-06  nbox=  5
     iter. #  1251  RMS(g-h-1)= 1.401E-06  nbox= 15
     iter. #  1261  RMS(g-h-1)= 1.400E-06  nbox=  9
     iter. #  1271  RMS(g-h-1)= 1.400E-06  nbox=  3
     iter. #  1281  RMS(g-h-1)= 1.400E-06  nbox= 13
     iter. #  1291  RMS(g-h-1)= 1.399E-06  nbox=  7
     iter. #  1301  RMS(g-h-1)= 1.399E-06  nbox= 17
     iter. #  1311  RMS(g-h-1)= 1.399E-06  nbox= 11
     iter. #  1321  RMS(g-h-1)= 1.399E-06  nbox=  5
     iter. #  1331  RMS(g-h-1)= 1.399E-06  nbox= 15
     iter. #  1341  RMS(g-h-1)= 1.399E-06  nbox=  9
     iter. #  1351  RMS(g-h-1)= 1.399E-06  nbox=  3
     iter. #  1361  RMS(g-h-1)= 1.398E-06  nbox= 13
     iter. #  1371  RMS(g-h-1)= 1.398E-06  nbox=  7
     iter. #  1381  RMS(g-h-1)= 1.397E-06  nbox= 17
     iter. #  1391  RMS(g-h-1)= 1.396E-06  nbox= 11
     iter. #  1401  RMS(g-h-1)= 1.393E-06  nbox=  5
     iter. #  1411  RMS(g-h-1)= 1.389E-06  nbox= 15
     iter. #  1421  RMS(g-h-1)= 1.380E-06  nbox=  9
     iter. #  1431  RMS(g-h-1)= 1.372E-06  nbox=  3
     iter. #  1441  RMS(g-h-1)= 1.368E-06  nbox= 13
     iter. #  1451  RMS(g-h-1)= 1.365E-06  nbox=  7
     iter. #  1461  RMS(g-h-1)= 1.362E-06  nbox= 17
     iter. #  1471  RMS(g-h-1)= 1.360E-06  nbox= 11
     iter. #  1481  RMS(g-h-1)= 1.360E-06  nbox=  5
     iter. #  1491  RMS(g-h-1)= 1.359E-06  nbox= 15
     iter. #  1501  RMS(g-h-1)= 1.359E-06  nbox=  9
     iter. #  1511  RMS(g-h-1)= 1.358E-06  nbox=  3
     iter. #  1521  RMS(g-h-1)= 1.356E-06  nbox= 13
     iter. #  1531  RMS(g-h-1)= 1.355E-06  nbox=  7
     iter. #  1541  RMS(g-h-1)= 1.354E-06  nbox= 17
     iter. #  1551  RMS(g-h-1)= 1.354E-06  nbox= 11
     iter. #  1561  RMS(g-h-1)= 1.354E-06  nbox=  5
     iter. #  1571  RMS(g-h-1)= 1.354E-06  nbox= 15
     iter. #  1581  RMS(g-h-1)= 1.353E-06  nbox=  9
     iter. #  1591  RMS(g-h-1)= 1.353E-06  nbox=  3
     iter. #  1601  RMS(g-h-1)= 1.352E-06  nbox= 13
     iter. #  1611  RMS(g-h-1)= 1.351E-06  nbox=  7
     iter. #  1621  RMS(g-h-1)= 1.351E-06  nbox= 17
     iter. #  1631  RMS(g-h-1)= 1.351E-06  nbox= 11
     iter. #  1641  RMS(g-h-1)= 1.350E-06  nbox=  5
     iter. #  1651  RMS(g-h-1)= 1.350E-06  nbox= 15
     iter. #  1661  RMS(g-h-1)= 1.350E-06  nbox=  9
     iter. #  1671  RMS(g-h-1)= 1.350E-06  nbox=  3
     iter. #  1681  RMS(g-h-1)= 1.349E-06  nbox= 13
     iter. #  1691  RMS(g-h-1)= 1.349E-06  nbox=  7
     iter. #  1701  RMS(g-h-1)= 1.349E-06  nbox= 17
     iter. #  1711  RMS(g-h-1)= 1.348E-06  nbox= 11
     iter. #  1721  RMS(g-h-1)= 1.347E-06  nbox=  5
     iter. #  1731  RMS(g-h-1)= 1.346E-06  nbox= 15
     iter. #  1741  RMS(g-h-1)= 1.342E-06  nbox=  9
     iter. #  1751  RMS(g-h-1)= 1.341E-06  nbox=  3
     iter. #  1761  RMS(g-h-1)= 1.339E-06  nbox= 13
     iter. #  1771  RMS(g-h-1)= 1.337E-06  nbox=  7
     iter. #  1781  RMS(g-h-1)= 1.336E-06  nbox= 17
     iter. #  1791  RMS(g-h-1)= 1.334E-06  nbox= 11
     iter. #  1801  RMS(g-h-1)= 1.333E-06  nbox=  5
     iter. #  1811  RMS(g-h-1)= 1.332E-06  nbox= 15
     iter. #  1821  RMS(g-h-1)= 1.332E-06  nbox=  9
     iter. #  1831  RMS(g-h-1)= 1.330E-06  nbox=  3
     iter. #  1841  RMS(g-h-1)= 1.330E-06  nbox= 13
     iter. #  1851  RMS(g-h-1)= 1.329E-06  nbox=  7
     iter. #  1861  RMS(g-h-1)= 1.329E-06  nbox= 17
     iter. #  1871  RMS(g-h-1)= 1.329E-06  nbox= 11
     iter. #  1881  RMS(g-h-1)= 1.328E-06  nbox=  5
     iter. #  1891  RMS(g-h-1)= 1.328E-06  nbox= 15
     iter. #  1901  RMS(g-h-1)= 1.330E-06  nbox=  9
     iter. #  1911  RMS(g-h-1)= 1.328E-06  nbox=  3
     iter. #  1921  RMS(g-h-1)= 1.327E-06  nbox= 13
     iter. #  1931  RMS(g-h-1)= 1.327E-06  nbox=  7
     iter. #  1941  RMS(g-h-1)= 1.327E-06  nbox= 17
     iter. #  1951  RMS(g-h-1)= 1.325E-06  nbox= 11
     iter. #  1961  RMS(g-h-1)= 1.322E-06  nbox=  5
     iter. #  1971  RMS(g-h-1)= 1.316E-06  nbox= 15
     iter. #  1981  RMS(g-h-1)= 1.289E-06  nbox=  9
     iter. #  1991  RMS(g-h-1)= 1.253E-06  nbox=  3
     iter. #  2001  RMS(g-h-1)= 1.186E-06  nbox= 13
     iter. #  2011  RMS(g-h-1)= 1.120E-06  nbox=  7
     iter. #  2021  RMS(g-h-1)= 1.067E-06  nbox= 17
     iter. #  2031  RMS(g-h-1)= 1.026E-06  nbox= 11
     iter. #  2037  RMS(g-h-1)= 9.992E-07  nbox= 17

     End of Laue-RISM calculation


     convergence has been achieved in  2037 iterations


     solvent charge    0.19998, renormalised to    0.20000

     Total number of solvent (in expand-cell)
     H2O           32.399150
     K+             0.845379
     OH-            0.645395

     Total charge of solvent (in expand-cell)
     H2O           -0.000001 e
     K+             0.845379 e
     OH-           -0.645399 e
     Total          0.199979 e

     Chemical potential of solvation (in expand-cell)
     H2O        GaussFluct   0.480348E+01 kcal/mol
     K+         GaussFluct   0.247552E+03 kcal/mol
     OH-        GaussFluct  -0.246238E+03 kcal/mol
     Total      GaussFluct   0.611745E+01 kcal/mol


     total cpu time spent up to now is      457.6 secs

     total energy              =   -4845.15018435 Ry
     estimated scf accuracy    <       0.00130838 Ry

     iteration #  6     ecut=    40.00 Ry     beta= 0.10
     RMM-DIIS diagonalization
     ethr =  5.73E-07,  avg # of iterations =  3.0

     negative rho (up, down):  1.519E-03 0.000E+00

     Laue-RISM Calculation

     convergence threshold    = 1.000E-06
     iter. #     1  RMS(g-h-1)= 5.066E-04  nbox=  0
     iter. #    11  RMS(g-h-1)= 6.831E-05  nbox= 10
     iter. #    21  RMS(g-h-1)= 4.396E-05  nbox= 20
     iter. #    31  RMS(g-h-1)= 3.263E-05  nbox= 20
     iter. #    41  RMS(g-h-1)= 2.807E-05  nbox= 20
     iter. #    51  RMS(g-h-1)= 2.500E-05  nbox= 20
     iter. #    61  RMS(g-h-1)= 1.909E-05  nbox=  8
     iter. #    71  RMS(g-h-1)= 1.320E-05  nbox= 18
     iter. #    81  RMS(g-h-1)= 1.167E-05  nbox= 20
     iter. #    91  RMS(g-h-1)= 1.101E-05  nbox=  6
     iter. #   101  RMS(g-h-1)= 9.967E-06  nbox= 16
     iter. #   111  RMS(g-h-1)= 9.245E-06  nbox= 10
     iter. #   121  RMS(g-h-1)= 8.101E-06  nbox=  4
     iter. #   131  RMS(g-h-1)= 7.385E-06  nbox= 14
     iter. #   141  RMS(g-h-1)= 6.847E-06  nbox=  8
     iter. #   151  RMS(g-h-1)= 6.533E-06  nbox=  2
     iter. #   161  RMS(g-h-1)= 6.006E-06  nbox= 12
     iter. #   171  RMS(g-h-1)= 5.472E-06  nbox=  6
     iter. #   181  RMS(g-h-1)= 4.851E-06  nbox= 16
     iter. #   191  RMS(g-h-1)= 4.301E-06  nbox= 10
     iter. #   201  RMS(g-h-1)= 4.085E-06  nbox=  4
     iter. #   211  RMS(g-h-1)= 3.931E-06  nbox= 14
     iter. #   221  RMS(g-h-1)= 3.767E-06  nbox=  8
     iter. #   231  RMS(g-h-1)= 3.603E-06  nbox=  2
     iter. #   241  RMS(g-h-1)= 3.473E-06  nbox= 12
     iter. #   251  RMS(g-h-1)= 3.280E-06  nbox=  6
     iter. #   261  RMS(g-h-1)= 3.162E-06  nbox= 16
     iter. #   271  RMS(g-h-1)= 3.017E-06  nbox= 10
     iter. #   281  RMS(g-h-1)= 2.793E-06  nbox=  4
     iter. #   291  RMS(g-h-1)= 2.515E-06  nbox= 14
     iter. #   301  RMS(g-h-1)= 2.269E-06  nbox=  8
     iter. #   311  RMS(g-h-1)= 2.134E-06  nbox=  2
     iter. #   321  RMS(g-h-1)= 2.049E-06  nbox= 12
     iter. #   331  RMS(g-h-1)= 2.017E-06  nbox=  6
     iter. #   341  RMS(g-h-1)= 2.027E-06  nbox= 16
     iter. #   351  RMS(g-h-1)= 1.965E-06  nbox= 10
     iter. #   361  RMS(g-h-1)= 1.942E-06  nbox=  4
     iter. #   371  RMS(g-h-1)= 1.911E-06  nbox= 14
     iter. #   381  RMS(g-h-1)= 1.862E-06  nbox=  8
     iter. #   391  RMS(g-h-1)= 1.803E-06  nbox=  2
     iter. #   401  RMS(g-h-1)= 1.733E-06  nbox= 12
     iter. #   411  RMS(g-h-1)= 1.651E-06  nbox=  6
     iter. #   421  RMS(g-h-1)= 1.556E-06  nbox= 16
     iter. #   431  RMS(g-h-1)= 1.417E-06  nbox= 10
     iter. #   441  RMS(g-h-1)= 1.239E-06  nbox=  4
     iter. #   451  RMS(g-h-1)= 1.118E-06  nbox= 14
     iter. #   461  RMS(g-h-1)= 1.016E-06  nbox=  8
     iter. #   464  RMS(g-h-1)= 9.957E-07  nbox= 11

     End of Laue-RISM calculation


     convergence has been achieved in   464 iterations


     solvent charge    0.20011, renormalised to    0.20000

     Total number of solvent (in expand-cell)
     H2O           32.398630
     K+             0.845756
     OH-            0.645736

     Total charge of solvent (in expand-cell)
     H2O            0.000001 e
     K+             0.845756 e
     OH-           -0.645647 e
     Total          0.200109 e

     Chemical potential of solvation (in expand-cell)
     H2O        GaussFluct   0.480498E+01 kcal/mol
     K+         GaussFluct   0.247227E+03 kcal/mol
     OH-        GaussFluct  -0.245970E+03 kcal/mol
     Total      GaussFluct   0.606240E+01 kcal/mol


     total cpu time spent up to now is      485.7 secs

     total energy              =   -4845.15036079 Ry
     estimated scf accuracy    <       0.00042093 Ry

     iteration #  7     ecut=    40.00 Ry     beta= 0.10
     RMM-DIIS diagonalization
     ethr =  1.84E-07,  avg # of iterations =  3.1

     negative rho (up, down):  1.527E-03 0.000E+00

     Laue-RISM Calculation

     convergence threshold    = 1.000E-06
     iter. #     1  RMS(g-h-1)= 5.891E-04  nbox=  0
     iter. #    11  RMS(g-h-1)= 8.079E-05  nbox= 10
     iter. #    21  RMS(g-h-1)= 5.017E-05  nbox= 20
     iter. #    31  RMS(g-h-1)= 3.755E-05  nbox= 20
     iter. #    41  RMS(g-h-1)= 3.465E-05  nbox=  2
     iter. #    51  RMS(g-h-1)= 2.623E-05  nbox= 12
     iter. #    61  RMS(g-h-1)= 2.069E-05  nbox=  6
     iter. #    71  RMS(g-h-1)= 1.397E-05  nbox= 16
     iter. #    81  RMS(g-h-1)= 1.263E-05  nbox= 20
     iter. #    91  RMS(g-h-1)= 1.150E-05  nbox= 10
     iter. #   101  RMS(g-h-1)= 1.033E-05  nbox=  4
     iter. #   111  RMS(g-h-1)= 9.568E-06  nbox= 14
     iter. #   121  RMS(g-h-1)= 8.121E-06  nbox=  8
     iter. #   131  RMS(g-h-1)= 7.574E-06  nbox=  2
     iter. #   141  RMS(g-h-1)= 7.049E-06  nbox= 12
     iter. #   151  RMS(g-h-1)= 6.694E-06  nbox=  6
     iter. #   161  RMS(g-h-1)= 6.092E-06  nbox= 16
     iter. #   171  RMS(g-h-1)= 5.644E-06  nbox= 10
     iter. #   181  RMS(g-h-1)= 5.087E-06  nbox=  4
     iter. #   191  RMS(g-h-1)= 4.822E-06  nbox= 14
     iter. #   201  RMS(g-h-1)= 4.531E-06  nbox=  8
     iter. #   211  RMS(g-h-1)= 4.312E-06  nbox=  2
     iter. #   221  RMS(g-h-1)= 4.156E-06  nbox= 12
     iter. #   231  RMS(g-h-1)= 4.088E-06  nbox=  6
     iter. #   241  RMS(g-h-1)= 4.005E-06  nbox= 16
     iter. #   251  RMS(g-h-1)= 3.938E-06  nbox= 10
     iter. #   261  RMS(g-h-1)= 3.803E-06  nbox=  4
     iter. #   271  RMS(g-h-1)= 3.514E-06  nbox= 14
     iter. #   281  RMS(g-h-1)= 3.101E-06  nbox=  8
     iter. #   291  RMS(g-h-1)= 2.880E-06  nbox=  2
     iter. #   301  RMS(g-h-1)= 2.776E-06  nbox= 12
     iter. #   311  RMS(g-h-1)= 2.684E-06  nbox=  6
     iter. #   321  RMS(g-h-1)= 2.622E-06  nbox= 16
     iter. #   331  RMS(g-h-1)= 2.580E-06  nbox= 10
     iter. #   341  RMS(g-h-1)= 2.529E-06  nbox=  4
     iter. #   351  RMS(g-h-1)= 2.482E-06  nbox= 14
     iter. #   361  RMS(g-h-1)= 2.456E-06  nbox=  8
     iter. #   371  RMS(g-h-1)= 2.426E-06  nbox=  2
     iter. #   381  RMS(g-h-1)= 2.407E-06  nbox= 12
     iter. #   391  RMS(g-h-1)= 2.367E-06  nbox=  6
     iter. #   401  RMS(g-h-1)= 2.349E-06  nbox= 16
     iter. #   411  RMS(g-h-1)= 2.337E-06  nbox= 10
     iter. #   421  RMS(g-h-1)= 2.323E-06  nbox=  4
     iter. #   431  RMS(g-h-1)= 2.316E-06  nbox= 14
     iter. #   441  RMS(g-h-1)= 2.309E-06  nbox=  8
     iter. #   451  RMS(g-h-1)= 2.290E-06  nbox=  2
     iter. #   461  RMS(g-h-1)= 2.273E-06  nbox= 12
     iter. #   471  RMS(g-h-1)= 2.269E-06  nbox=  6
     iter. #   481  RMS(g-h-1)= 2.243E-06  nbox= 16
     iter. #   491  RMS(g-h-1)= 2.201E-06  nbox= 10
     iter. #   501  RMS(g-h-1)= 2.084E-06  nbox=  4
     iter. #   511  RMS(g-h-1)= 1.978E-06  nbox= 14
     iter. #   521  RMS(g-h-1)= 1.855E-06  nbox=  8
     iter. #   531  RMS(g-h-1)= 1.771E-06  nbox=  2
     iter. #   541  RMS(g-h-1)= 1.701E-06  nbox= 12
     iter. #   551  RMS(g-h-1)= 1.638E-06  nbox=  6
     iter. #   561  RMS(g-h-1)= 1.528E-06  nbox= 16
     iter. #   571  RMS(g-h-1)= 1.457E-06  nbox= 10
     iter. #   581  RMS(g-h-1)= 1.399E-06  nbox=  4
     iter. #   591  RMS(g-h-1)= 1.315E-06  nbox= 14
     iter. #   601  RMS(g-h-1)= 1.233E-06  nbox=  8
     iter. #   611  RMS(g-h-1)= 1.141E-06  nbox=  2
     iter. #   621  RMS(g-h-1)= 1.040E-06  nbox= 12
     iter. #   626  RMS(g-h-1)= 9.943E-07  nbox= 17

     End of Laue-RISM calculation


     convergence has been achieved in   626 iterations


     solvent charge    0.20008, renormalised to    0.20000

     Total number of solvent (in expand-cell)
     H2O           32.397972
     K+             0.846150
     OH-            0.646138

     Total charge of solvent (in expand-cell)
     H2O            0.000003 e
     K+             0.846150 e
     OH-           -0.646070 e
     Total          0.200083 e

     Chemical potential of solvation (in expand-cell)
     H2O        GaussFluct   0.481174E+01 kcal/mol
     K+         GaussFluct   0.246912E+03 kcal/mol
     OH-        GaussFluct  -0.245714E+03 kcal/mol
     Total      GaussFluct   0.601018E+01 kcal/mol


     total cpu time spent up to now is      522.5 secs

     total energy              =   -4845.15045924 Ry
     estimated scf accuracy    <       0.00007265 Ry

     iteration #  8     ecut=    40.00 Ry     beta= 0.10
     RMM-DIIS diagonalization
     ethr =  3.18E-08,  avg # of iterations =  3.2

     negative rho (up, down):  1.533E-03 0.000E+00

     Laue-RISM Calculation

     convergence threshold    = 1.000E-06
     iter. #     1  RMS(g-h-1)= 2.951E-04  nbox=  0
     iter. #    11  RMS(g-h-1)= 6.928E-05  nbox= 10
     iter. #    21  RMS(g-h-1)= 2.832E-05  nbox= 20
     iter. #    31  RMS(g-h-1)= 2.005E-05  nbox= 20
     iter. #    41  RMS(g-h-1)= 1.664E-05  nbox= 20
     iter. #    51  RMS(g-h-1)= 1.321E-05  nbox= 20
     iter. #    61  RMS(g-h-1)= 1.164E-05  nbox= 20
     iter. #    71  RMS(g-h-1)= 9.155E-06  nbox= 20
     iter. #    81  RMS(g-h-1)= 6.380E-06  nbox= 20
     iter. #    91  RMS(g-h-1)= 5.858E-06  nbox= 20
     iter. #   101  RMS(g-h-1)= 5.219E-06  nbox=  8
     iter. #   111  RMS(g-h-1)= 4.215E-06  nbox=  2
     iter. #   121  RMS(g-h-1)= 3.181E-06  nbox= 12
     iter. #   131  RMS(g-h-1)= 2.727E-06  nbox=  3
     iter. #   141  RMS(g-h-1)= 2.420E-06  nbox= 13
     iter. #   151  RMS(g-h-1)= 2.167E-06  nbox=  7
     iter. #   161  RMS(g-h-1)= 2.046E-06  nbox= 17
     iter. #   171  RMS(g-h-1)= 1.980E-06  nbox= 11
     iter. #   181  RMS(g-h-1)= 1.954E-06  nbox=  5
     iter. #   191  RMS(g-h-1)= 1.871E-06  nbox= 15
     iter. #   201  RMS(g-h-1)= 1.805E-06  nbox=  9
     iter. #   211  RMS(g-h-1)= 1.710E-06  nbox=  3
     iter. #   221  RMS(g-h-1)= 1.611E-06  nbox= 13
     iter. #   231  RMS(g-h-1)= 1.467E-06  nbox=  7
     iter. #   241  RMS(g-h-1)= 1.327E-06  nbox= 17
     iter. #   251  RMS(g-h-1)= 1.269E-06  nbox= 11
     iter. #   261  RMS(g-h-1)= 1.216E-06  nbox=  5
     iter. #   271  RMS(g-h-1)= 1.188E-06  nbox= 15
     iter. #   281  RMS(g-h-1)= 1.169E-06  nbox=  9
     iter. #   291  RMS(g-h-1)= 1.154E-06  nbox=  3
     iter. #   301  RMS(g-h-1)= 1.149E-06  nbox= 13
     iter. #   311  RMS(g-h-1)= 1.145E-06  nbox=  7
     iter. #   321  RMS(g-h-1)= 1.137E-06  nbox= 17
     iter. #   331  RMS(g-h-1)= 1.121E-06  nbox= 11
     iter. #   341  RMS(g-h-1)= 1.109E-06  nbox=  5
     iter. #   351  RMS(g-h-1)= 1.092E-06  nbox= 15
     iter. #   361  RMS(g-h-1)= 1.070E-06  nbox=  9
     iter. #   371  RMS(g-h-1)= 1.041E-06  nbox=  3
     iter. #   379  RMS(g-h-1)= 9.949E-07  nbox= 11

     End of Laue-RISM calculation


     convergence has been achieved in   379 iterations


     solvent charge    0.20012, renormalised to    0.20000

     Total number of solvent (in expand-cell)
     H2O           32.397697
     K+             0.846362
     OH-            0.646328

     Total charge of solvent (in expand-cell)
     H2O            0.000005 e
     K+             0.846362 e
     OH-           -0.646246 e
     Total          0.200121 e

     Chemical potential of solvation (in expand-cell)
     H2O        GaussFluct   0.481359E+01 kcal/mol
     K+         GaussFluct   0.246792E+03 kcal/mol
     OH-        GaussFluct  -0.245614E+03 kcal/mol
     Total      GaussFluct   0.599132E+01 kcal/mol


     total cpu time spent up to now is      545.9 secs

     total energy              =   -4845.15048401 Ry
     estimated scf accuracy    <       0.00008646 Ry

     iteration #  9     ecut=    40.00 Ry     beta= 0.10
     RMM-DIIS diagonalization
     ethr =  3.18E-08,  avg # of iterations =  2.6

     negative rho (up, down):  1.541E-03 0.000E+00

     Laue-RISM Calculation

     convergence threshold    = 1.000E-06
     iter. #     1  RMS(g-h-1)= 3.811E-04  nbox=  0
     iter. #    11  RMS(g-h-1)= 5.499E-05  nbox= 10
     iter. #    21  RMS(g-h-1)= 2.810E-05  nbox= 20
     iter. #    31  RMS(g-h-1)= 1.661E-05  nbox= 20
     iter. #    41  RMS(g-h-1)= 1.454E-05  nbox= 20
     iter. #    51  RMS(g-h-1)= 1.144E-05  nbox= 20
     iter. #    61  RMS(g-h-1)= 1.037E-05  nbox= 20
     iter. #    71  RMS(g-h-1)= 8.484E-06  nbox=  6
     iter. #    81  RMS(g-h-1)= 6.165E-06  nbox= 16
     iter. #    91  RMS(g-h-1)= 5.375E-06  nbox= 10
     iter. #   101  RMS(g-h-1)= 4.366E-06  nbox=  4
     iter. #   111  RMS(g-h-1)= 3.936E-06  nbox= 14
     iter. #   121  RMS(g-h-1)= 3.665E-06  nbox=  8
     iter. #   131  RMS(g-h-1)= 3.551E-06  nbox=  2
     iter. #   141  RMS(g-h-1)= 3.265E-06  nbox= 12
     iter. #   151  RMS(g-h-1)= 3.002E-06  nbox=  6
     iter. #   161  RMS(g-h-1)= 2.713E-06  nbox= 16
     iter. #   171  RMS(g-h-1)= 2.488E-06  nbox= 10
     iter. #   181  RMS(g-h-1)= 2.276E-06  nbox=  4
     iter. #   191  RMS(g-h-1)= 2.154E-06  nbox= 14
     iter. #   201  RMS(g-h-1)= 2.064E-06  nbox=  8
     iter. #   211  RMS(g-h-1)= 2.037E-06  nbox=  2
     iter. #   221  RMS(g-h-1)= 2.013E-06  nbox= 12
     iter. #   231  RMS(g-h-1)= 1.999E-06  nbox=  6
     iter. #   241  RMS(g-h-1)= 1.945E-06  nbox= 16
     iter. #   251  RMS(g-h-1)= 1.883E-06  nbox= 10
     iter. #   261  RMS(g-h-1)= 1.805E-06  nbox=  4
     iter. #   271  RMS(g-h-1)= 1.737E-06  nbox= 14
     iter. #   281  RMS(g-h-1)= 1.650E-06  nbox=  8
     iter. #   291  RMS(g-h-1)= 1.602E-06  nbox=  2
     iter. #   301  RMS(g-h-1)= 1.549E-06  nbox= 12
     iter. #   311  RMS(g-h-1)= 1.523E-06  nbox=  6
     iter. #   321  RMS(g-h-1)= 1.490E-06  nbox= 16
     iter. #   331  RMS(g-h-1)= 1.467E-06  nbox= 10
     iter. #   341  RMS(g-h-1)= 1.433E-06  nbox=  4
     iter. #   351  RMS(g-h-1)= 1.418E-06  nbox= 14
     iter. #   361  RMS(g-h-1)= 1.411E-06  nbox=  8
     iter. #   371  RMS(g-h-1)= 1.396E-06  nbox=  2
     iter. #   381  RMS(g-h-1)= 1.354E-06  nbox= 12
     iter. #   391  RMS(g-h-1)= 1.288E-06  nbox=  6
     iter. #   401  RMS(g-h-1)= 1.173E-06  nbox= 16
     iter. #   411  RMS(g-h-1)= 1.077E-06  nbox= 10
     iter. #   420  RMS(g-h-1)= 9.967E-07  nbox=  3

     End of Laue-RISM calculation


     convergence has been achieved in   420 iterations


     solvent charge    0.20007, renormalised to    0.20000

     Total number of solvent (in expand-cell)
     H2O           32.397559
     K+             0.846525
     OH-            0.646530

     Total charge of solvent (in expand-cell)
     H2O           -0.000004 e
     K+             0.846525 e
     OH-           -0.646451 e
     Total          0.200070 e

     Chemical potential of solvation (in expand-cell)
     H2O        GaussFluct   0.481549E+01 kcal/mol
     K+         GaussFluct   0.246599E+03 kcal/mol
     OH-        GaussFluct  -0.245448E+03 kcal/mol
     Total      GaussFluct   0.596594E+01 kcal/mol


     total cpu time spent up to now is      571.5 secs

     total energy              =   -4845.15043756 Ry
     estimated scf accuracy    <       0.00001684 Ry

     iteration # 10     ecut=    40.00 Ry     beta= 0.10
     Davidson diagonalization with overlap
     c_bands:  1 eigenvalues not converged
     ethr =  7.38E-09,  avg # of iterations =  8.2

     negative rho (up, down):  1.541E-03 0.000E+00

     Laue-RISM Calculation

     convergence threshold    = 1.000E-06
     iter. #     1  RMS(g-h-1)= 4.658E-05  nbox=  0
     iter. #    11  RMS(g-h-1)= 1.288E-05  nbox= 10
     iter. #    21  RMS(g-h-1)= 4.445E-06  nbox= 20
     iter. #    31  RMS(g-h-1)= 3.281E-06  nbox= 20
     iter. #    41  RMS(g-h-1)= 2.527E-06  nbox= 20
     iter. #    51  RMS(g-h-1)= 2.166E-06  nbox= 20
     iter. #    61  RMS(g-h-1)= 2.047E-06  nbox=  2
     iter. #    71  RMS(g-h-1)= 1.644E-06  nbox= 12
     iter. #    81  RMS(g-h-1)= 1.153E-06  nbox= 20
     iter. #    91  RMS(g-h-1)= 1.060E-06  nbox=  3
     iter. #   101  RMS(g-h-1)= 1.015E-06  nbox= 13
     iter. #   107  RMS(g-h-1)= 9.944E-07  nbox=  3

     End of Laue-RISM calculation


     convergence has been achieved in   107 iterations


     solvent charge    0.20008, renormalised to    0.20000

     Total number of solvent (in expand-cell)
     H2O           32.397576
     K+             0.846536
     OH-            0.646543

     Total charge of solvent (in expand-cell)
     H2O            0.000003 e
     K+             0.846536 e
     OH-           -0.646456 e
     Total          0.200083 e

     Chemical potential of solvation (in expand-cell)
     H2O        GaussFluct   0.481572E+01 kcal/mol
     K+         GaussFluct   0.246610E+03 kcal/mol
     OH-        GaussFluct  -0.245457E+03 kcal/mol
     Total      GaussFluct   0.596867E+01 kcal/mol


     total cpu time spent up to now is      581.3 secs

     total energy              =   -4845.15043555 Ry
     estimated scf accuracy    <       0.00001205 Ry

     iteration # 11     ecut=    40.00 Ry     beta= 0.10
     RMM-DIIS diagonalization
     ethr =  5.28E-09,  avg # of iterations =  2.6

     negative rho (up, down):  1.541E-03 0.000E+00

     Laue-RISM Calculation

     convergence threshold    = 1.000E-06
     iter. #     1  RMS(g-h-1)= 7.038E-05  nbox=  0
     iter. #    11  RMS(g-h-1)= 1.074E-05  nbox= 10
     iter. #    21  RMS(g-h-1)= 4.753E-06  nbox= 20
     iter. #    31  RMS(g-h-1)= 4.048E-06  nbox= 20
     iter. #    41  RMS(g-h-1)= 3.740E-06  nbox=  5
     iter. #    51  RMS(g-h-1)= 2.862E-06  nbox= 15
     iter. #    61  RMS(g-h-1)= 2.154E-06  nbox= 20
     iter. #    71  RMS(g-h-1)= 1.900E-06  nbox=  7
     iter. #    81  RMS(g-h-1)= 1.626E-06  nbox= 17
     iter. #    91  RMS(g-h-1)= 1.420E-06  nbox= 11
     iter. #   101  RMS(g-h-1)= 1.239E-06  nbox=  5
     iter. #   111  RMS(g-h-1)= 1.127E-06  nbox= 15
     iter. #   121  RMS(g-h-1)= 1.075E-06  nbox=  9
     iter. #   129  RMS(g-h-1)= 9.968E-07  nbox= 17

     End of Laue-RISM calculation


     convergence has been achieved in   129 iterations


     solvent charge    0.19995, renormalised to    0.20000

     Total number of solvent (in expand-cell)
     H2O           32.397703
     K+             0.846433
     OH-            0.646487

     Total charge of solvent (in expand-cell)
     H2O           -0.000006 e
     K+             0.846433 e
     OH-           -0.646473 e
     Total          0.199953 e

     Chemical potential of solvation (in expand-cell)
     H2O        GaussFluct   0.481529E+01 kcal/mol
     K+         GaussFluct   0.246663E+03 kcal/mol
     OH-        GaussFluct  -0.245496E+03 kcal/mol
     Total      GaussFluct   0.598143E+01 kcal/mol


     total cpu time spent up to now is      590.5 secs

     total energy              =   -4845.15033453 Ry
     estimated scf accuracy    <       0.00000166 Ry

     iteration # 12     ecut=    40.00 Ry     beta= 0.10
     RMM-DIIS diagonalization
     ethr =  7.26E-10,  avg # of iterations =  3.4

     negative rho (up, down):  1.544E-03 0.000E+00

     Laue-RISM Calculation

     convergence threshold    = 1.000E-06
     iter. #     1  RMS(g-h-1)= 6.987E-05  nbox=  0
     iter. #    11  RMS(g-h-1)= 1.113E-05  nbox= 10
     iter. #    21  RMS(g-h-1)= 4.119E-06  nbox= 20
     iter. #    31  RMS(g-h-1)= 2.515E-06  nbox= 20
     iter. #    41  RMS(g-h-1)= 1.876E-06  nbox= 20
     iter. #    51  RMS(g-h-1)= 1.642E-06  nbox= 20
     iter. #    61  RMS(g-h-1)= 1.199E-06  nbox=  9
     iter. #    69  RMS(g-h-1)= 9.939E-07  nbox= 17

     End of Laue-RISM calculation


     convergence has been achieved in    69 iterations


     solvent charge    0.20005, renormalised to    0.20000

     Total number of solvent (in expand-cell)
     H2O           32.397609
     K+             0.846535
     OH-            0.646536

     Total charge of solvent (in expand-cell)
     H2O           -0.000002 e
     K+             0.846535 e
     OH-           -0.646484 e
     Total          0.200050 e

     Chemical potential of solvation (in expand-cell)
     H2O        GaussFluct   0.481435E+01 kcal/mol
     K+         GaussFluct   0.246639E+03 kcal/mol
     OH-        GaussFluct  -0.245479E+03 kcal/mol
     Total      GaussFluct   0.597384E+01 kcal/mol


     total cpu time spent up to now is      596.7 secs

     total energy              =   -4845.15040030 Ry
     estimated scf accuracy    <       0.00000130 Ry

     iteration # 13     ecut=    40.00 Ry     beta= 0.10
     RMM-DIIS diagonalization
     ethr =  5.71E-10,  avg # of iterations =  2.7

     negative rho (up, down):  1.547E-03 0.000E+00

     Laue-RISM Calculation

     convergence threshold    = 1.000E-06
     iter. #     1  RMS(g-h-1)= 9.858E-05  nbox=  0
     iter. #    11  RMS(g-h-1)= 8.530E-06  nbox= 10
     iter. #    21  RMS(g-h-1)= 3.415E-06  nbox= 20
     iter. #    31  RMS(g-h-1)= 2.463E-06  nbox= 20
     iter. #    41  RMS(g-h-1)= 2.125E-06  nbox=  4
     iter. #    51  RMS(g-h-1)= 1.535E-06  nbox= 14
     iter. #    61  RMS(g-h-1)= 1.100E-06  nbox= 20
     iter. #    71  RMS(g-h-1)= 9.985E-07  nbox=  3

     End of Laue-RISM calculation


     convergence has been achieved in    71 iterations


     solvent charge    0.20011, renormalised to    0.20000

     Total number of solvent (in expand-cell)
     H2O           32.397670
     K+             0.846589
     OH-            0.646560

     Total charge of solvent (in expand-cell)
     H2O           -0.000008 e
     K+             0.846589 e
     OH-           -0.646476 e
     Total          0.200105 e

     Chemical potential of solvation (in expand-cell)
     H2O        GaussFluct   0.481157E+01 kcal/mol
     K+         GaussFluct   0.246634E+03 kcal/mol
     OH-        GaussFluct  -0.245472E+03 kcal/mol
     Total      GaussFluct   0.597434E+01 kcal/mol


     total cpu time spent up to now is      602.7 secs

     End of self-consistent calculation

          k = 0.1250 0.0722 0.0000 ( 19861 PWs)   bands (ev):

  -116.9667-116.9591-116.9588-116.9588-116.7010-116.6934-116.6931-116.6931
  -116.6845-116.6769-116.6766-116.6766 -74.3985 -74.3985 -74.3903 -74.3605
   -74.3505 -74.3501 -74.3501 -74.3445 -74.3399 -74.3399 -74.3268 -74.3203
   -74.1488 -74.1488 -74.1378 -74.1347 -74.1347 -74.1237 -74.0970 -74.0895
   -74.0895 -74.0830 -74.0796 -74.0755 -74.0755 -74.0695 -74.0656 -74.0578
   -74.0554 -74.0508 -74.0505 -74.0505 -74.0391 -74.0324 -74.0321 -74.0321
   -12.8731 -10.9414  -9.4560  -9.1947  -9.0546  -9.0546  -8.8701  -8.8271
    -8.8271  -8.4994  -8.4589  -8.4589  -8.3630  -8.3629  -8.3629  -7.7893
    -7.7893  -7.7792  -7.4355  -7.4301  -7.4243  -7.4243  -7.3881  -7.3251
    -7.3075  -7.2032  -7.2032  -7.1301  -7.1203  -7.1043  -7.0347  -6.9916
    -6.9712  -6.9544  -6.9544  -6.5823  -6.5823  -6.5574  -6.5508  -6.5396
    -6.4721  -6.4719  -6.4719  -6.4367  -6.2348  -6.1818  -6.1461  -6.1461
    -6.1186  -6.0917  -6.0760  -6.0760  -6.0530  -6.0530  -6.0313  -6.0238
    -5.9201  -5.9201  -5.8398  -5.8398  -5.8248  -5.8092  -5.7890  -5.2151
    -4.4732  -4.4732  -4.3923  -4.1623  -3.4517  -3.4517  -2.4600  -2.4600
    -2.2367  -0.6813  -0.0632  -0.0361   0.0568   0.0568   0.1062   0.5635
     0.8177   0.8178   0.8284   1.0180   1.8191   2.0778   2.1418   2.1462
     2.1464

          k = 0.1250 0.3608 0.0000 ( 19876 PWs)   bands (ev):

  -116.9650-116.9605-116.9596-116.9582-116.6993-116.6948-116.6940-116.6926
  -116.6827-116.6783-116.6774-116.6761 -74.3914 -74.3837 -74.3808 -74.3581
   -74.3531 -74.3523 -74.3511 -74.3493 -74.3482 -74.3411 -74.3351 -74.3259
   -74.1418 -74.1345 -74.1287 -74.1277 -74.1205 -74.1147 -74.1024 -74.1004
   -74.0927 -74.0883 -74.0864 -74.0845 -74.0787 -74.0759 -74.0705 -74.0618
   -74.0561 -74.0520 -74.0512 -74.0500 -74.0376 -74.0336 -74.0328 -74.0316
   -12.1566 -10.2854  -9.8631  -9.3465  -8.9527  -8.9202  -8.7470  -8.6738
    -8.5528  -8.3949  -8.3373  -8.2734  -8.1114  -8.0771  -8.0645  -7.7829
    -7.7688  -7.7615  -7.6864  -7.5570  -7.5313  -7.4711  -7.4233  -7.4144
    -7.2942  -7.2605  -7.2030  -7.1815  -7.1323  -7.1223  -7.0840  -7.0809
    -7.0678  -6.9848  -6.8637  -6.8461  -6.8431  -6.7677  -6.7547  -6.7218
    -6.7047  -6.6827  -6.6797  -6.6000  -6.5420  -6.5223  -6.5056  -6.4188
    -6.4056  -6.3923  -6.3236  -6.2372  -6.2350  -6.1825  -6.1780  -6.0791
    -6.0789  -6.0442  -6.0418  -6.0277  -5.9698  -5.9660  -5.8951  -5.4399
    -5.3449  -5.0622  -4.5614  -3.3301  -3.1616  -2.9848  -2.2350  -2.1692
    -1.4375  -0.0295   0.0857   0.5391   0.6370   0.6651   0.9516   1.2778
     1.3296   1.4984   1.7145   2.2357   2.5284   2.7311   2.7940   2.8441
     3.1455

          k = 0.1250-0.5052 0.0000 ( 19917 PWs)   bands (ev):

  -116.9635-116.9620-116.9597-116.9581-116.6979-116.6963-116.6941-116.6925
  -116.6813-116.6797-116.6775-116.6759 -74.3811 -74.3799 -74.3690 -74.3647
   -74.3571 -74.3562 -74.3541 -74.3513 -74.3491 -74.3478 -74.3329 -74.3267
   -74.1298 -74.1296 -74.1198 -74.1161 -74.1156 -74.1154 -74.1089 -74.1058
   -74.1017 -74.0982 -74.0949 -74.0841 -74.0829 -74.0760 -74.0688 -74.0620
   -74.0548 -74.0533 -74.0513 -74.0499 -74.0363 -74.0349 -74.0329 -74.0315
   -11.4807 -10.6682  -9.7241  -9.3679  -9.2014  -8.6565  -8.5823  -8.4897
    -8.4118  -8.3735  -8.1874  -8.1771  -8.0113  -7.9762  -7.9457  -7.8245
    -7.7970  -7.7826  -7.7111  -7.7071  -7.6009  -7.5904  -7.4247  -7.4189
    -7.3157  -7.2851  -7.2219  -7.2006  -7.1852  -7.1772  -7.1726  -7.1351
    -7.1200  -7.0573  -7.0304  -6.9875  -6.9849  -6.9674  -6.9163  -6.9002
    -6.8450  -6.6862  -6.6829  -6.6276  -6.5643  -6.5586  -6.5391  -6.4988
    -6.4788  -6.4328  -6.3452  -6.3193  -6.3142  -6.2391  -6.2357  -6.1850
    -6.1491  -6.0775  -6.0440  -6.0367  -6.0299  -5.9716  -5.9682  -5.9276
    -5.2988  -4.5473  -4.5276  -3.8458  -3.3198  -2.2233  -2.2136  -2.0002
    -1.1299  -0.2023   0.6192   0.8428   0.9382   1.3323   1.3739   1.4750
     1.9655   1.9904   2.1734   2.2538   2.2573   2.3194   2.9075   2.9342
     3.0751

          k = 0.1250-0.2165 0.0000 ( 19876 PWs)   bands (ev):

  -116.9661-116.9594-116.9594-116.9585-116.7004-116.6937-116.6937-116.6928
  -116.6839-116.6772-116.6772-116.6763 -74.3926 -74.3926 -74.3896 -74.3596
   -74.3522 -74.3509 -74.3509 -74.3496 -74.3389 -74.3389 -74.3345 -74.3196
   -74.1429 -74.1429 -74.1371 -74.1289 -74.1289 -74.1231 -74.1045 -74.0905
   -74.0887 -74.0887 -74.0871 -74.0746 -74.0746 -74.0731 -74.0689 -74.0572
   -74.0548 -74.0510 -74.0510 -74.0502 -74.0386 -74.0326 -74.0326 -74.0318
   -12.6304 -10.7146  -9.2923  -9.2923  -9.2759  -8.8755  -8.8390  -8.8390
    -8.7118  -8.4523  -8.4523  -8.3813  -8.2583  -8.2583  -8.2436  -7.7832
    -7.7747  -7.7747  -7.5411  -7.3960  -7.3937  -7.3937  -7.3916  -7.3800
    -7.3592  -7.2267  -7.2136  -7.2136  -7.1209  -7.0801  -7.0419  -7.0291
    -7.0291  -6.9991  -6.8872  -6.7036  -6.6736  -6.6736  -6.6678  -6.5646
    -6.5208  -6.4906  -6.4906  -6.4830  -6.3938  -6.3456  -6.2936  -6.2936
    -6.2059  -6.2059  -6.1864  -6.1691  -6.1143  -6.1143  -6.0920  -6.0533
    -6.0352  -5.9699  -5.9699  -5.9343  -5.9343  -5.9211  -5.4911  -5.4045
    -5.4045  -4.5112  -4.5112  -3.9171  -3.6168  -2.8049  -2.2767  -2.1344
    -2.1344  -0.4636   0.0450   0.1713   0.1960   0.5220   0.5220   0.8018
     1.0510   1.2492   1.3597   1.3597   2.0435   2.0557   2.2695   2.2695
     2.2944

          k = 0.3750-0.0722 0.0000 ( 19876 PWs)   bands (ev):

  -116.9650-116.9605-116.9596-116.9582-116.6993-116.6948-116.6940-116.6926
  -116.6827-116.6783-116.6774-116.6761 -74.3914 -74.3837 -74.3808 -74.3581
   -74.3531 -74.3523 -74.3511 -74.3493 -74.3482 -74.3411 -74.3351 -74.3259
   -74.1418 -74.1345 -74.1287 -74.1277 -74.1205 -74.1147 -74.1024 -74.1004
   -74.0927 -74.0883 -74.0864 -74.0845 -74.0787 -74.0759 -74.0705 -74.0618
   -74.0561 -74.0520 -74.0512 -74.0500 -74.0376 -74.0336 -74.0328 -74.0316
   -12.1566 -10.2854  -9.8631  -9.3465  -8.9527  -8.9202  -8.7470  -8.6738
    -8.5528  -8.3949  -8.3373  -8.2734  -8.1114  -8.0771  -8.0645  -7.7829
    -7.7688  -7.7615  -7.6864  -7.5570  -7.5313  -7.4711  -7.4233  -7.4144
    -7.2942  -7.2605  -7.2030  -7.1815  -7.1323  -7.1223  -7.0840  -7.0809
    -7.0678  -6.9848  -6.8637  -6.8461  -6.8431  -6.7677  -6.7547  -6.7218
    -6.7047  -6.6827  -6.6797  -6.6000  -6.5420  -6.5223  -6.5056  -6.4188
    -6.4056  -6.3923  -6.3236  -6.2372  -6.2350  -6.1825  -6.1780  -6.0791
    -6.0789  -6.0442  -6.0418  -6.0277  -5.9698  -5.9660  -5.8951  -5.4399
    -5.3449  -5.0622  -4.5614  -3.3301  -3.1616  -2.9848  -2.2350  -2.1692
    -1.4375  -0.0295   0.0857   0.5391   0.6370   0.6651   0.9516   1.2778
     1.3296   1.4984   1.7145   2.2357   2.5284   2.7311   2.7939   2.8431
     3.1449

          k = 0.3750 0.2165 0.0000 ( 19929 PWs)   bands (ev):

  -116.9645-116.9613-116.9588-116.9588-116.6988-116.6957-116.6931-116.6931
  -116.6822-116.6791-116.6766-116.6766 -74.3900 -74.3900 -74.3699 -74.3575
   -74.3533 -74.3501 -74.3501 -74.3485 -74.3485 -74.3409 -74.3394 -74.3320
   -74.1410 -74.1410 -74.1270 -74.1270 -74.1179 -74.1038 -74.0974 -74.0974
   -74.0919 -74.0896 -74.0847 -74.0833 -74.0833 -74.0779 -74.0755 -74.0707
   -74.0556 -74.0527 -74.0504 -74.0504 -74.0372 -74.0344 -74.0321 -74.0321
   -11.9272 -10.3262 -10.0891  -9.0795  -8.8648  -8.8648  -8.8229  -8.5815
    -8.5815  -8.4202  -8.2579  -8.2579  -8.0660  -8.0095  -8.0095  -7.7493
    -7.7493  -7.7444  -7.7422  -7.6081  -7.6025  -7.6025  -7.4140  -7.3920
    -7.2338  -7.2338  -7.2193  -7.1521  -7.1521  -7.1434  -7.0776  -7.0427
    -7.0323  -6.9481  -6.9463  -6.9325  -6.9325  -6.8646  -6.8506  -6.8506
    -6.8113  -6.6993  -6.6617  -6.5957  -6.5957  -6.5773  -6.5184  -6.4393
    -6.4209  -6.4209  -6.2989  -6.2866  -6.2699  -6.2699  -6.2595  -6.1957
    -6.1720  -6.0423  -6.0423  -6.0193  -5.9993  -5.9330  -5.9330  -5.8819
    -4.8818  -4.4920  -4.4920  -3.5305  -3.3972  -3.3972  -2.8327  -1.1311
    -1.1311  -0.6335   0.1865   0.8687   0.9010   1.0063   1.0063   1.5155
     1.7227   1.8719   2.0662   2.0669   2.7064   2.7643   2.7877   2.8723
     2.9500

          k = 0.3750-0.6495 0.0000 ( 19872 PWs)   bands (ev):

  -116.9623-116.9623-116.9609-116.9578-116.6966-116.6966-116.6953-116.6922
  -116.6801-116.6801-116.6787-116.6756 -74.3838 -74.3765 -74.3659 -74.3600
   -74.3600 -74.3546 -74.3545 -74.3528 -74.3487 -74.3380 -74.3380 -74.3369
   -74.1352 -74.1280 -74.1213 -74.1141 -74.1140 -74.1093 -74.1093 -74.1001
   -74.0952 -74.0952 -74.0896 -74.0896 -74.0859 -74.0756 -74.0756 -74.0718
   -74.0536 -74.0536 -74.0524 -74.0495 -74.0353 -74.0353 -74.0340 -74.0312
   -10.8485 -10.8485 -10.0984  -9.2680  -9.2680  -8.8701  -8.2969  -8.2969
    -8.2717  -8.2701  -8.1004  -8.0932  -8.0612  -8.0477  -7.9276  -7.9128
    -7.9128  -7.7649  -7.7649  -7.6742  -7.5168  -7.4957  -7.4860  -7.4860
    -7.4575  -7.3972  -7.3871  -7.3871  -7.3237  -7.3237  -7.1709  -7.1137
    -7.1087  -7.0899  -7.0251  -7.0130  -7.0130  -6.9979  -6.9196  -6.9196
    -6.7481  -6.7481  -6.6376  -6.6008  -6.5354  -6.5344  -6.5344  -6.5078
    -6.4375  -6.4375  -6.3694  -6.2267  -6.2267  -6.1750  -6.1650  -6.1650
    -6.1238  -6.0934  -6.0839  -6.0839  -6.0635  -6.0601  -5.9121  -5.9121
    -5.8152  -5.3998  -3.9843  -3.9842  -3.2192  -1.8591  -1.3815  -1.3815
    -0.5470  -0.3468  -0.0447  -0.0041   1.2701   1.2701   1.6594   1.7985
     2.0289   2.0289   2.0841   2.0843   2.1351   2.7065   2.7085   2.7308
     2.9681

          k = 0.3750-0.3608 0.0000 ( 19917 PWs)   bands (ev):

  -116.9635-116.9620-116.9597-116.9581-116.6979-116.6963-116.6941-116.6925
  -116.6813-116.6797-116.6775-116.6759 -74.3811 -74.3799 -74.3690 -74.3647
   -74.3571 -74.3562 -74.3541 -74.3513 -74.3491 -74.3478 -74.3329 -74.3267
   -74.1298 -74.1296 -74.1198 -74.1161 -74.1156 -74.1154 -74.1089 -74.1058
   -74.1017 -74.0982 -74.0949 -74.0841 -74.0829 -74.0760 -74.0688 -74.0620
   -74.0548 -74.0533 -74.0513 -74.0499 -74.0363 -74.0349 -74.0329 -74.0315
   -11.4807 -10.6682  -9.7241  -9.3679  -9.2014  -8.6565  -8.5823  -8.4897
    -8.4118  -8.3735  -8.1874  -8.1771  -8.0113  -7.9762  -7.9457  -7.8245
    -7.7970  -7.7826  -7.7111  -7.7071  -7.6009  -7.5904  -7.4247  -7.4189
    -7.3157  -7.2851  -7.2219  -7.2006  -7.1852  -7.1772  -7.1726  -7.1351
    -7.1200  -7.0573  -7.0304  -6.9875  -6.9849  -6.9674  -6.9163  -6.9002
    -6.8450  -6.6862  -6.6829  -6.6276  -6.5643  -6.5586  -6.5391  -6.4988
    -6.4788  -6.4328  -6.3452  -6.3193  -6.3142  -6.2391  -6.2357  -6.1850
    -6.1491  -6.0775  -6.0440  -6.0367  -6.0299  -5.9716  -5.9682  -5.9276
    -5.2988  -4.5473  -4.5276  -3.8458  -3.3198  -2.2233  -2.2136  -2.0002
    -1.1299  -0.2023   0.6192   0.8428   0.9382   1.3323   1.3739   1.4750
     1.9653   1.9904   2.1734   2.2540   2.2573   2.3193   2.9019   2.9338
     3.0731

     the Fermi energy is    -4.5045 ev

!    total energy              =   -4845.15040332 Ry
     estimated scf accuracy    <       0.00000014 Ry
     smearing contrib. (-TS)   =      -0.00833406 Ry
     internal energy E=F+TS    =   -4845.14206926 Ry

     The total energy is F=E-TS. E is the sum of the following terms:
     one-electron contribution =   26977.95790788 Ry
     hartree contribution      =  -13547.84033978 Ry
     xc contribution           =    -465.32857635 Ry
     ewald contribution        =  -17809.95104590 Ry
     solvation energy (RISM)   =       0.01905416 Ry
     level-shifting contrib.   =       0.00093072 Ry

     convergence has been achieved in  13 iterations

     negative rho (up, down):  1.547E-03 0.000E+00

     Forces acting on atoms (cartesian axes, Ry/au):

     atom    1 type  1   force =     0.00016902    0.00010434    0.00498156
     atom    2 type  1   force =    -0.00000749   -0.00000332   -0.00007305
     atom    3 type  1   force =    -0.00017179   -0.00010084   -0.00567466
     atom    4 type  1   force =     0.00017731    0.00010089    0.00498430
     atom    5 type  1   force =    -0.00000314   -0.00000471   -0.00007372
     atom    6 type  1   force =    -0.00016193   -0.00009480   -0.00568237
     atom    7 type  1   force =     0.00017304    0.00010480    0.00498624
     atom    8 type  1   force =    -0.00000238   -0.00000431   -0.00007286
     atom    9 type  1   force =    -0.00016284   -0.00009685   -0.00568290
     atom   10 type  1   force =     0.00017037    0.00009463    0.00498547
     atom   11 type  1   force =    -0.00000872   -0.00000319   -0.00007608
     atom   12 type  1   force =    -0.00017146   -0.00009664   -0.00567313

     Total force =     0.011363     Total SCF correction =     0.001428
     SCF correction compared to forces is large: reduce conv_thr to get better values

     Writing all to output data dir ./output/opt.save/ :
     XML data file, charge density, RISM restart, pseudopotentials, RISM molfiles, collected wavefunctions
 
     init_run     :     44.62s CPU     47.12s WALL (       1 calls)
     electrons    :    443.59s CPU    460.49s WALL (       1 calls)
     forces       :      0.96s CPU      1.01s WALL (       1 calls)

     Called by init_run:
     wfcinit      :      0.42s CPU      0.77s WALL (       1 calls)
     potinit      :     43.80s CPU     45.87s WALL (       1 calls)
     hinit0       :      0.22s CPU      0.25s WALL (       1 calls)

     Called by electrons:
     c_bands      :     41.49s CPU     42.20s WALL (      13 calls)
     sum_band     :      3.17s CPU      3.63s WALL (      13 calls)
     v_of_rho     :      0.22s CPU      0.26s WALL (      14 calls)
     newd         :      0.49s CPU      0.84s WALL (      14 calls)
     mix_rho      :      0.04s CPU      0.04s WALL (      13 calls)

     Called by c_bands:
     init_us_2    :      0.27s CPU      0.27s WALL (     216 calls)
     crmmdiagg    :      6.04s CPU      6.19s WALL (      72 calls)
     wfcrot       :      4.61s CPU      4.71s WALL (      72 calls)

     Called by *rmmdiagg:
     h_psi        :     14.67s CPU     15.03s WALL (    1150 calls)
     s_psi        :      1.20s CPU      1.22s WALL (    1150 calls)
     g_psi        :      0.03s CPU      0.03s WALL (     760 calls)

     Called by h_psi:
     h_psi:calbec :      1.49s CPU      1.65s WALL (    1150 calls)
     vloc_psi     :     11.78s CPU     11.94s WALL (    1150 calls)
     add_vuspsi   :      1.24s CPU      1.28s WALL (    1150 calls)

     General routines
     calbec       :      1.94s CPU      2.18s WALL (    1286 calls)
     fft          :      0.18s CPU      0.22s WALL (     234 calls)
     ffts         :      0.01s CPU      0.01s WALL (      27 calls)
     fftw         :     11.31s CPU     11.46s WALL (  104644 calls)
     interpolate  :      0.01s CPU      0.02s WALL (      14 calls)
 
     Parallel routines
     fft_scatt_xy :      2.04s CPU      2.26s WALL (   97906 calls)
     fft_scatt_yz :     21.33s CPU     24.19s WALL (   97906 calls)

     RISM routines
     1DRISM_pre   :     94.38s CPU     94.44s WALL (       1 calls)
     1DRISM_run   :      0.06s CPU      0.06s WALL (       1 calls)
     3DRISM_pre   :      1.80s CPU      2.04s WALL (       1 calls)
     3DRISM_run   :    440.14s CPU    457.21s WALL (      14 calls)
     3DRISM_for   :      0.59s CPU      0.59s WALL (       1 calls)
     3DRISM_vsol  :      0.01s CPU      0.01s WALL (      14 calls)
 
     PWSCF        :   9m44.70s CPU  10m 5.49s WALL

 
   This run was terminated on:  11:50:45   9Jun2024            

=------------------------------------------------------------------------------=
   JOB DONE.
=------------------------------------------------------------------------------=
