
     Program PWSCF v.7.3.1 starts on  9Jun2024 at 11:30:34 

     This program is part of the open-source Quantum ESPRESSO suite
     for quantum simulation of materials; please cite
         "P. Giannozzi et al., J. Phys.:Condens. Matter 21 395502 (2009);
         "P. Giannozzi et al., J. Phys.:Condens. Matter 29 465901 (2017);
         "P. Giannozzi et al., J. Chem. Phys. 152 154105 (2020);
          URL http://www.quantum-espresso.org", 
     in publications or presentations arising from this work. More details at
     http://www.quantum-espresso.org/quote

     Parallel version (MPI), running on    32 processors

     MPI processes distributed on     1 nodes
     148691 MiB available memory on the printing compute node when the environment starts
 
     Reading input from espresso.pwi

     Current dimensions of program PWSCF are:
     Max number of different atomic species (ntypx) = 10
     Max number of k-points (npk) =  40000
     Max angular momentum in pseudopotentials (lmaxx) =  4
     Message from routine iosys_1drism:
     default density from MOL file(H2O.tip5p.Nishihara.MOL) is used
     Found identity + ( -0.0000 -0.5000  0.0000) symmetry
     This is a supercell, fractional translations are disabled
 
     R & G space division:  proc/nbgrp/npool/nimage =      32
     Subspace diagonalization in iterative solution of the eigenvalue problem:
     a serial algorithm will be used


     Molecule # 1 for H2O read from file:
     /beegfs/hotpool/mano/rism/RISM_example/pseudo/H2O.tip5p.Nishihara.MOL
     Density:
         0.23069113E+02 cell^-1
         0.49533751E-02 bohr^-3
         0.55506881E+02 mol/L
         0.99997200E+00 g/cm^3
     Permittivity:
        78.500000
     Number of atoms:   5
     Atoms:
       #  atom      X (angs)      Y (angs)      Z (angs)      Q (e)         E (kcal/mol)  S (angs)
       1  O/h2o     0.00000000   -0.06556000    0.00000000    0.00000000    0.16000000    3.12000000
       2  H/h2o     0.75695000    0.52032000    0.00000000    0.24100000    0.04600000    1.00000000
       3  H/h2o    -0.75695000    0.52032000    0.00000000    0.24100000    0.04600000    1.00000000
       4  L/h2o     0.00000000   -0.46971000    0.57154000   -0.24100000    0.04600000    1.80000000
       5  L/h2o     0.00000000   -0.46971000   -0.57154000   -0.24100000    0.04600000    1.80000000


     Molecule # 2 for K+ read from file:
     /beegfs/hotpool/mano/rism/RISM_example/pseudo/K+.Hagiwara.MOL
     Density:
         0.41560816E+00 cell^-1
         0.89238937E-04 bohr^-3
         0.10000000E+01 mol/L
         0.39098300E-01 g/cm^3
     Number of atoms:   1
     Atoms:
       #  atom      X (angs)      Y (angs)      Z (angs)      Q (e)         E (kcal/mol)  S (angs)
       1  K         0.00000000    0.00000000    0.00000000    1.00000000    0.00032800    4.93462800


     Molecule # 3 for OH- read from file:
     /beegfs/hotpool/mano/rism/RISM_example/pseudo/OH-.oplsaa.MOL
     Density:
         0.41560816E+00 cell^-1
         0.89238937E-04 bohr^-3
         0.10000000E+01 mol/L
         0.17007340E-01 g/cm^3
     Number of atoms:   2
     Atoms:
       #  atom      X (angs)      Y (angs)      Z (angs)      Q (e)         E (kcal/mol)  S (angs)
       1  O/oh      0.00000000    0.00000000    0.00000000   -1.30000000    0.25000000    3.20000000
       2  H/oh      0.95300000    0.00000000    0.00000000    0.30000000    0.04600000    1.00000000


     1D-RISM info
     ------------
     closure equation        =           KH
     temperature             =     300.0000  kelvin
     coulomb smearing radius =       2.0000  bohr
     number of solvent sites =            8
     number of grids         =         5973
     maximum of R-space      =     999.8326  bohr
     maximum of G-space      =      18.7632  bohr^-1
     number of iterations    =        15000
     convergence threshold   =      1.0E-08
     Gaussian width of bonds =       0.3162  bohr
     size of MDIIS           =           20
     step of MDIIS           =       0.2000
     number of processes     =           32


     1D-RISM Calculation

     iter. #     1  RMS(g-h-1)= 7.798E-04  nbox=  0  T= 2400.00K
     iter. #   101  RMS(g-h-1)= 1.222E-06  nbox= 20  T= 1600.00K
     iter. #   201  RMS(g-h-1)= 3.438E-06  nbox= 20  T=  711.11K
     iter. #   301  RMS(g-h-1)= 2.056E-06  nbox= 20  T=  474.07K
     iter. #   401  RMS(g-h-1)= 1.763E-06  nbox= 20  T=  316.05K
     iter. #   501  RMS(g-h-1)= 4.735E-07  nbox= 20  T=  300.00K
     iter. #   601  RMS(g-h-1)= 1.657E-07  nbox= 20  T=  300.00K
     iter. #   701  RMS(g-h-1)= 1.104E-07  nbox= 20  T=  300.00K
     iter. #   801  RMS(g-h-1)= 9.032E-08  nbox= 20  T=  300.00K
     iter. #   901  RMS(g-h-1)= 7.143E-08  nbox= 20  T=  300.00K
     iter. #  1001  RMS(g-h-1)= 6.179E-08  nbox= 20  T=  300.00K
     iter. #  1101  RMS(g-h-1)= 5.327E-08  nbox= 20  T=  300.00K
     iter. #  1201  RMS(g-h-1)= 4.801E-08  nbox= 20  T=  300.00K
     iter. #  1301  RMS(g-h-1)= 4.365E-08  nbox= 20  T=  300.00K
     iter. #  1401  RMS(g-h-1)= 3.851E-08  nbox= 20  T=  300.00K
     iter. #  1501  RMS(g-h-1)= 3.354E-08  nbox= 20  T=  300.00K
     iter. #  1601  RMS(g-h-1)= 3.242E-08  nbox= 20  T=  300.00K
     iter. #  1701  RMS(g-h-1)= 3.257E-08  nbox= 20  T=  300.00K
     iter. #  1801  RMS(g-h-1)= 3.202E-08  nbox= 20  T=  300.00K
     iter. #  1901  RMS(g-h-1)= 3.140E-08  nbox= 20  T=  300.00K
     iter. #  2001  RMS(g-h-1)= 3.103E-08  nbox= 20  T=  300.00K
     iter. #  2101  RMS(g-h-1)= 3.002E-08  nbox= 20  T=  300.00K
     iter. #  2201  RMS(g-h-1)= 2.905E-08  nbox= 20  T=  300.00K
     iter. #  2301  RMS(g-h-1)= 2.778E-08  nbox= 20  T=  300.00K
     iter. #  2401  RMS(g-h-1)= 2.679E-08  nbox= 20  T=  300.00K
     iter. #  2501  RMS(g-h-1)= 2.575E-08  nbox= 20  T=  300.00K
     iter. #  2601  RMS(g-h-1)= 2.414E-08  nbox= 20  T=  300.00K
     iter. #  2701  RMS(g-h-1)= 2.261E-08  nbox= 20  T=  300.00K
     iter. #  2801  RMS(g-h-1)= 2.036E-08  nbox= 20  T=  300.00K
     iter. #  2901  RMS(g-h-1)= 1.928E-08  nbox= 20  T=  300.00K
     iter. #  3001  RMS(g-h-1)= 1.846E-08  nbox= 20  T=  300.00K
     iter. #  3101  RMS(g-h-1)= 1.770E-08  nbox= 20  T=  300.00K
     iter. #  3201  RMS(g-h-1)= 1.694E-08  nbox= 20  T=  300.00K
     iter. #  3301  RMS(g-h-1)= 1.611E-08  nbox= 20  T=  300.00K
     iter. #  3401  RMS(g-h-1)= 1.540E-08  nbox= 20  T=  300.00K
     iter. #  3501  RMS(g-h-1)= 1.439E-08  nbox= 20  T=  300.00K
     iter. #  3601  RMS(g-h-1)= 1.361E-08  nbox= 20  T=  300.00K
     iter. #  3701  RMS(g-h-1)= 1.289E-08  nbox= 20  T=  300.00K
     iter. #  3801  RMS(g-h-1)= 1.230E-08  nbox= 20  T=  300.00K
     iter. #  3901  RMS(g-h-1)= 1.185E-08  nbox= 20  T=  300.00K
     iter. #  4001  RMS(g-h-1)= 1.140E-08  nbox= 20  T=  300.00K
     iter. #  4101  RMS(g-h-1)= 1.087E-08  nbox= 20  T=  300.00K
     iter. #  4201  RMS(g-h-1)= 1.038E-08  nbox= 20  T=  300.00K
     iter. #  4284  RMS(g-h-1)= 9.990E-09  nbox= 20  T=  300.00K

     End of 1D-RISM calculation


     convergence has been achieved in  4284 iterations


     Chemical potential of solvation

     H2O        H2O        Closure      0.144018E+01 kcal/mol
                           GaussFluct  -0.702227E+01 kcal/mol

                K+         Closure     -0.280526E+00 kcal/mol
                           GaussFluct  -0.350066E+00 kcal/mol

                OH-        Closure     -0.749876E+00 kcal/mol
                           GaussFluct  -0.841417E+00 kcal/mol

                Total      Closure      0.409778E+00 kcal/mol
                           GaussFluct  -0.821376E+01 kcal/mol

     K+         H2O        Closure     -0.155711E+02 kcal/mol
                           GaussFluct  -0.194311E+02 kcal/mol

                K+         Closure      0.351545E+06 kcal/mol
                           GaussFluct   0.351545E+06 kcal/mol

                OH-        Closure     -0.351595E+06 kcal/mol
                           GaussFluct  -0.351595E+06 kcal/mol

                Total      Closure     -0.662661E+02 kcal/mol
                           GaussFluct  -0.701841E+02 kcal/mol

     OH-        H2O        Closure     -0.416233E+02 kcal/mol
                           GaussFluct  -0.467044E+02 kcal/mol

                K+         Closure     -0.351595E+06 kcal/mol
                           GaussFluct  -0.351595E+06 kcal/mol

                OH-        Closure      0.351544E+06 kcal/mol
                           GaussFluct   0.351544E+06 kcal/mol

                Total      Closure     -0.925525E+02 kcal/mol
                           GaussFluct  -0.977562E+02 kcal/mol

 
     Parallelization info
     --------------------
     sticks:   dense  smooth     PW     G-vecs:    dense   smooth      PW
     Min          65      32      9                14054     4956     765
     Max          66      33     10                14087     4993     792
     Sum        2083    1039    301               450233   159127   24819
 
     Using Slab Decomposition
 


     bravais-lattice index     =            0
     lattice parameter (alat)  =       9.7396  a.u.
     unit-cell volume          =    4657.2513 (a.u.)^3
     number of atoms/cell      =           12
     number of atomic types    =            1
     number of electrons       =       227.90
     number of Kohn-Sham states=          137
     kinetic-energy cutoff     =      40.0000  Ry
     charge density cutoff     =     320.0000  Ry
     scf convergence threshold =      1.0E-06
     mixing beta               =       0.1000
     number of iterations used =            8  plain     mixing
     Exchange-correlation= SLA  PW   PBE  PBE
                           (   1   4   3   4   0   0   0)

     Effective Screening Medium Method
     =================================
     Boundary Conditions: Vacuum-Slab-Vacuum
     total charge in unit cell        =   0.1000
     grid points for fit at edges     =        4 
 

     celldm(1)=   9.739563  celldm(2)=   0.000000  celldm(3)=   0.000000
     celldm(4)=   0.000000  celldm(5)=   0.000000  celldm(6)=   0.000000

     crystal axes: (cart. coord. in units of alat)
               a(1) = (   1.000000   0.000000   0.000000 )  
               a(2) = (   0.500000   0.866025   0.000000 )  
               a(3) = (   0.000000   0.000000   5.820773 )  

     reciprocal axes: (cart. coord. in units 2 pi/alat)
               b(1) = (  1.000000 -0.577350  0.000000 )  
               b(2) = (  0.000000  1.154701  0.000000 )  
               b(3) = (  0.000000  0.000000  0.171798 )  


     PseudoPot. # 1 for Cu read from file:
     /beegfs/hotpool/mano/rism/RISM_example/pseudo/cu_pbe_v1.2.uspp.F.UPF
     MD5 check sum: 6e991ff952a84172a2a52a1c1e996048
     Pseudo is Ultrasoft + core correction, Zval = 19.0
     Generated by new atomic code, or converted to UPF format
     Using radial grid of  867 points,  6 beta functions with: 
                l(1) =   0
                l(2) =   0
                l(3) =   1
                l(4) =   1
                l(5) =   2
                l(6) =   2
     Q(r) pseudized with  8 coefficients,  rinner =    1.150   1.150   1.150
                                                       1.150   1.150

     atomic species   valence    mass     pseudopotential
     Cu               19.00    63.54600     Cu( 1.00)

     No symmetry found



   Cartesian axes

     site n.     atom                  positions (alat units)
         1        Cu     tau(   1) = (   0.0000000   0.0000000  -0.4043952  )
         2        Cu     tau(   2) = (   0.5000000   0.2886751   0.0038531  )
         3        Cu     tau(   3) = (   0.2500000   0.1443376   0.4121014  )
         4        Cu     tau(   4) = (   0.2500000   0.4330127  -0.4043952  )
         5        Cu     tau(   5) = (   0.7500000   0.7216878   0.0038531  )
         6        Cu     tau(   6) = (   0.5000000   0.5773503   0.4121014  )
         7        Cu     tau(   7) = (   0.5000000   0.0000000  -0.4043952  )
         8        Cu     tau(   8) = (   1.0000000   0.2886751   0.0038531  )
         9        Cu     tau(   9) = (   0.7500000   0.1443376   0.4121014  )
        10        Cu     tau(  10) = (   0.7500000   0.4330127  -0.4043952  )
        11        Cu     tau(  11) = (   1.2500000   0.7216878   0.0038531  )
        12        Cu     tau(  12) = (   1.0000000   0.5773503   0.4121014  )

     number of k points=     8  Gaussian smearing, width (Ry)=  0.0100
                       cart. coord. in units 2pi/alat
        k(    1) = (   0.1250000   0.0721688   0.0000000), wk =   0.2500000
        k(    2) = (   0.1250000   0.3608439   0.0000000), wk =   0.2500000
        k(    3) = (   0.1250000  -0.5051815   0.0000000), wk =   0.2500000
        k(    4) = (   0.1250000  -0.2165064   0.0000000), wk =   0.2500000
        k(    5) = (   0.3750000  -0.0721688   0.0000000), wk =   0.2500000
        k(    6) = (   0.3750000   0.2165064   0.0000000), wk =   0.2500000
        k(    7) = (   0.3750000  -0.6495191   0.0000000), wk =   0.2500000
        k(    8) = (   0.3750000  -0.3608439   0.0000000), wk =   0.2500000

     Dense  grid:   450233 G-vectors     FFT dimensions: (  60,  60, 324)

     Smooth grid:   159127 G-vectors     FFT dimensions: (  40,  40, 240)

     Estimated max dynamical RAM per process >      71.06 MB

     Estimated total dynamical RAM >       2.22 GB

     Solute:
       # atom     E (kcal/mol)  S (angs)
       1  Cu      0.00500000    3.11369102    given
       2  Cu      0.00500000    3.11369102    given
       3  Cu      0.00500000    3.11369102    given
       4  Cu      0.00500000    3.11369102    given
       5  Cu      0.00500000    3.11369102    given
       6  Cu      0.00500000    3.11369102    given
       7  Cu      0.00500000    3.11369102    given
       8  Cu      0.00500000    3.11369102    given
       9  Cu      0.00500000    3.11369102    given
      10  Cu      0.00500000    3.11369102    given
      11  Cu      0.00500000    3.11369102    given
      12  Cu      0.00500000    3.11369102    given

     Wall:
       Density =    0.01000000  bohr^-3
       E       =    0.10000000  kcal/mol
       S       =    4.00000000  angs


     Laue-RISM info
     --------------
     closure equation        =           KH
     temperature             =     300.0000  kelvin
     coulomb smearing radius =       2.0000  bohr
     number of solvent sites =            6
     solvent sites           =    O/h2o   H/h2o   L/h2o       K
     solvent sites           =     O/oh    H/oh
     number of iterations    =        15000
     convergence threshold   =      1.0E-06
     convergence level       =       0.7000
     size of MDIIS           =           20
     step of MDIIS           =       0.1000
     solvent cutoff          =     160.0000  Ry
     Custom grid:   159127 G-vectors     FFT dimensions: (  40,  40, 240)

     Boundary Conditions        : Vacuum-Slab-Solvent
     unit-cell (in bohr)        : [ -28.345892  28.345892]
     expand-cell (in bohr)      : [ -28.345892  89.761991]
     solvent of right (in bohr) : [   0.000000  89.761991]
     buffer  of right (in bohr) : [  -4.015668   0.000000]
     repulsive wall (in bohr)   : [  -Infinity  -2.286274]
     reference of potential     : right-hand side
     #grids to fit at edges of unit-cell =    4
     Laue grid:     1039 Gxy-vectors     FFT dimensions: (  40,  40, 500)


     Initial potential from superposition of free atoms

     starting charge     216.0000, renormalised to     227.9000

     negative rho (up, down):  4.339E-03 0.000E+00

     Laue-RISM Calculation

     convergence threshold    = 1.585E-05
     iter. #     1  RMS(g-h-1)= 2.107E+00  nbox=  0
     iter. #    11  RMS(g-h-1)= 1.171E-01  nbox= 10
     iter. #    21  RMS(g-h-1)= 8.101E-02  nbox= 20
     iter. #    31  RMS(g-h-1)= 3.151E-02  nbox= 20
     iter. #    41  RMS(g-h-1)= 2.076E-02  nbox= 20
     iter. #    51  RMS(g-h-1)= 1.724E-02  nbox= 20
     iter. #    61  RMS(g-h-1)= 1.253E-02  nbox= 20
     iter. #    71  RMS(g-h-1)= 1.082E-02  nbox= 20
     iter. #    81  RMS(g-h-1)= 9.795E-03  nbox=  7
     iter. #    91  RMS(g-h-1)= 7.401E-03  nbox= 17
     iter. #   101  RMS(g-h-1)= 5.212E-03  nbox= 20
     iter. #   111  RMS(g-h-1)= 4.622E-03  nbox= 20
     iter. #   121  RMS(g-h-1)= 3.982E-03  nbox=  8
     iter. #   131  RMS(g-h-1)= 3.051E-03  nbox= 18
     iter. #   141  RMS(g-h-1)= 2.527E-03  nbox= 20
     iter. #   151  RMS(g-h-1)= 2.188E-03  nbox=  6
     iter. #   161  RMS(g-h-1)= 1.844E-03  nbox= 16
     iter. #   171  RMS(g-h-1)= 1.534E-03  nbox= 10
     iter. #   181  RMS(g-h-1)= 1.400E-03  nbox=  4
     iter. #   191  RMS(g-h-1)= 1.224E-03  nbox= 14
     iter. #   201  RMS(g-h-1)= 1.134E-03  nbox=  8
     iter. #   211  RMS(g-h-1)= 1.058E-03  nbox=  2
     iter. #   221  RMS(g-h-1)= 9.684E-04  nbox= 12
     iter. #   231  RMS(g-h-1)= 8.834E-04  nbox=  6
     iter. #   241  RMS(g-h-1)= 8.436E-04  nbox= 16
     iter. #   251  RMS(g-h-1)= 8.087E-04  nbox= 10
     iter. #   261  RMS(g-h-1)= 7.791E-04  nbox=  4
     iter. #   271  RMS(g-h-1)= 7.532E-04  nbox= 14
     iter. #   281  RMS(g-h-1)= 7.173E-04  nbox=  8
     iter. #   291  RMS(g-h-1)= 6.861E-04  nbox=  2
     iter. #   301  RMS(g-h-1)= 6.376E-04  nbox= 12
     iter. #   311  RMS(g-h-1)= 6.055E-04  nbox=  6
     iter. #   321  RMS(g-h-1)= 5.748E-04  nbox= 16
     iter. #   331  RMS(g-h-1)= 5.371E-04  nbox= 10
     iter. #   341  RMS(g-h-1)= 5.006E-04  nbox=  4
     iter. #   351  RMS(g-h-1)= 4.644E-04  nbox= 14
     iter. #   361  RMS(g-h-1)= 4.396E-04  nbox=  8
     iter. #   371  RMS(g-h-1)= 4.258E-04  nbox=  2
     iter. #   381  RMS(g-h-1)= 4.168E-04  nbox= 12
     iter. #   391  RMS(g-h-1)= 4.019E-04  nbox=  6
     iter. #   401  RMS(g-h-1)= 3.901E-04  nbox= 16
     iter. #   411  RMS(g-h-1)= 3.703E-04  nbox= 10
     iter. #   421  RMS(g-h-1)= 3.517E-04  nbox=  4
     iter. #   431  RMS(g-h-1)= 3.350E-04  nbox= 14
     iter. #   441  RMS(g-h-1)= 3.288E-04  nbox=  8
     iter. #   451  RMS(g-h-1)= 3.108E-04  nbox=  2
     iter. #   461  RMS(g-h-1)= 2.994E-04  nbox= 12
     iter. #   471  RMS(g-h-1)= 2.852E-04  nbox=  6
     iter. #   481  RMS(g-h-1)= 2.732E-04  nbox= 16
     iter. #   491  RMS(g-h-1)= 2.621E-04  nbox= 10
     iter. #   501  RMS(g-h-1)= 2.544E-04  nbox=  4
     iter. #   511  RMS(g-h-1)= 2.372E-04  nbox= 14
     iter. #   521  RMS(g-h-1)= 2.265E-04  nbox=  8
     iter. #   531  RMS(g-h-1)= 2.141E-04  nbox=  2
     iter. #   541  RMS(g-h-1)= 2.036E-04  nbox= 12
     iter. #   551  RMS(g-h-1)= 1.945E-04  nbox=  6
     iter. #   561  RMS(g-h-1)= 1.891E-04  nbox= 16
     iter. #   571  RMS(g-h-1)= 1.791E-04  nbox= 10
     iter. #   581  RMS(g-h-1)= 1.732E-04  nbox=  4
     iter. #   591  RMS(g-h-1)= 1.695E-04  nbox= 14
     iter. #   601  RMS(g-h-1)= 1.654E-04  nbox=  8
     iter. #   611  RMS(g-h-1)= 1.615E-04  nbox=  2
     iter. #   621  RMS(g-h-1)= 1.573E-04  nbox= 12
     iter. #   631  RMS(g-h-1)= 1.529E-04  nbox=  6
     iter. #   641  RMS(g-h-1)= 1.493E-04  nbox= 16
     iter. #   651  RMS(g-h-1)= 1.459E-04  nbox= 10
     iter. #   661  RMS(g-h-1)= 1.427E-04  nbox=  4
     iter. #   671  RMS(g-h-1)= 1.363E-04  nbox= 14
     iter. #   681  RMS(g-h-1)= 1.320E-04  nbox=  8
     iter. #   691  RMS(g-h-1)= 1.282E-04  nbox=  2
     iter. #   701  RMS(g-h-1)= 1.245E-04  nbox= 12
     iter. #   711  RMS(g-h-1)= 1.221E-04  nbox=  6
     iter. #   721  RMS(g-h-1)= 1.207E-04  nbox= 16
     iter. #   731  RMS(g-h-1)= 1.173E-04  nbox= 10
     iter. #   741  RMS(g-h-1)= 1.135E-04  nbox=  4
     iter. #   751  RMS(g-h-1)= 1.084E-04  nbox= 14
     iter. #   761  RMS(g-h-1)= 1.012E-04  nbox=  8
     iter. #   771  RMS(g-h-1)= 9.478E-05  nbox=  2
     iter. #   781  RMS(g-h-1)= 8.752E-05  nbox= 12
     iter. #   791  RMS(g-h-1)= 7.883E-05  nbox=  6
     iter. #   801  RMS(g-h-1)= 7.124E-05  nbox= 16
     iter. #   811  RMS(g-h-1)= 6.171E-05  nbox= 10
     iter. #   821  RMS(g-h-1)= 5.478E-05  nbox=  4
     iter. #   831  RMS(g-h-1)= 5.200E-05  nbox= 14
     iter. #   841  RMS(g-h-1)= 5.031E-05  nbox=  8
     iter. #   851  RMS(g-h-1)= 4.902E-05  nbox=  2
     iter. #   861  RMS(g-h-1)= 4.768E-05  nbox= 12
     iter. #   871  RMS(g-h-1)= 4.700E-05  nbox=  6
     iter. #   881  RMS(g-h-1)= 4.622E-05  nbox= 16
     iter. #   891  RMS(g-h-1)= 4.542E-05  nbox= 10
     iter. #   901  RMS(g-h-1)= 4.428E-05  nbox=  4
     iter. #   911  RMS(g-h-1)= 4.290E-05  nbox= 14
     iter. #   921  RMS(g-h-1)= 4.136E-05  nbox=  8
     iter. #   931  RMS(g-h-1)= 3.920E-05  nbox=  2
     iter. #   941  RMS(g-h-1)= 3.635E-05  nbox= 12
     iter. #   951  RMS(g-h-1)= 3.455E-05  nbox=  6
     iter. #   961  RMS(g-h-1)= 3.246E-05  nbox= 16
     iter. #   971  RMS(g-h-1)= 3.031E-05  nbox= 10
     iter. #   981  RMS(g-h-1)= 2.762E-05  nbox=  4
     iter. #   991  RMS(g-h-1)= 2.535E-05  nbox= 14
     iter. #  1001  RMS(g-h-1)= 2.396E-05  nbox=  8
     iter. #  1011  RMS(g-h-1)= 2.263E-05  nbox=  2
     iter. #  1021  RMS(g-h-1)= 2.151E-05  nbox= 12
     iter. #  1031  RMS(g-h-1)= 2.063E-05  nbox=  6
     iter. #  1041  RMS(g-h-1)= 1.978E-05  nbox= 16
     iter. #  1051  RMS(g-h-1)= 1.900E-05  nbox= 10
     iter. #  1061  RMS(g-h-1)= 1.815E-05  nbox=  4
     iter. #  1071  RMS(g-h-1)= 1.759E-05  nbox= 14
     iter. #  1081  RMS(g-h-1)= 1.717E-05  nbox=  8
     iter. #  1091  RMS(g-h-1)= 1.685E-05  nbox=  2
     iter. #  1101  RMS(g-h-1)= 1.640E-05  nbox= 12
     iter. #  1111  RMS(g-h-1)= 1.606E-05  nbox=  6
     iter. #  1116  RMS(g-h-1)= 1.583E-05  nbox= 11

     End of Laue-RISM calculation


     convergence has been achieved in  1116 iterations


     solvent charge   -0.09983, renormalised to   -0.10000

     Total number of solvent (in expand-cell)
     H2O           32.889047
     K+             0.582649
     OH-            0.682938

     Total charge of solvent (in expand-cell)
     H2O           -0.000022 e
     K+             0.582649 e
     OH-           -0.682460 e
     Total         -0.099833 e

     Chemical potential of solvation (in expand-cell)
     H2O        GaussFluct   0.412225E+01 kcal/mol
     K+         GaussFluct  -0.141511E+03 kcal/mol
     OH-        GaussFluct   0.144779E+03 kcal/mol
     Total      GaussFluct   0.738948E+01 kcal/mol

     Starting wfcs are  156 randomized atomic wfcs

     total cpu time spent up to now is      130.5 secs

     Self-consistent Calculation

     iteration #  1     ecut=    40.00 Ry     beta= 0.10
     Davidson diagonalization with overlap
     ethr =  1.00E-02,  avg # of iterations =  6.4

     negative rho (up, down):  2.287E-03 0.000E+00

     Laue-RISM Calculation

     convergence threshold    = 1.585E-05
     iter. #     1  RMS(g-h-1)= 1.086E-01  nbox=  0
     iter. #    11  RMS(g-h-1)= 1.893E-02  nbox= 10
     iter. #    21  RMS(g-h-1)= 1.323E-02  nbox= 20
     iter. #    31  RMS(g-h-1)= 1.115E-02  nbox= 20
     iter. #    41  RMS(g-h-1)= 1.031E-02  nbox=  5
     iter. #    51  RMS(g-h-1)= 8.301E-03  nbox= 15
     iter. #    61  RMS(g-h-1)= 6.586E-03  nbox=  9
     iter. #    71  RMS(g-h-1)= 5.414E-03  nbox= 19
     iter. #    81  RMS(g-h-1)= 4.525E-03  nbox=  6
     iter. #    91  RMS(g-h-1)= 4.050E-03  nbox= 16
     iter. #   101  RMS(g-h-1)= 3.778E-03  nbox= 10
     iter. #   111  RMS(g-h-1)= 3.554E-03  nbox=  4
     iter. #   121  RMS(g-h-1)= 3.257E-03  nbox= 14
     iter. #   131  RMS(g-h-1)= 2.938E-03  nbox=  8
     iter. #   141  RMS(g-h-1)= 2.540E-03  nbox=  2
     iter. #   151  RMS(g-h-1)= 2.000E-03  nbox= 12
     iter. #   161  RMS(g-h-1)= 1.746E-03  nbox=  6
     iter. #   171  RMS(g-h-1)= 1.468E-03  nbox= 16
     iter. #   181  RMS(g-h-1)= 1.328E-03  nbox= 10
     iter. #   191  RMS(g-h-1)= 1.213E-03  nbox=  4
     iter. #   201  RMS(g-h-1)= 1.111E-03  nbox= 14
     iter. #   211  RMS(g-h-1)= 1.060E-03  nbox=  8
     iter. #   221  RMS(g-h-1)= 1.034E-03  nbox=  2
     iter. #   231  RMS(g-h-1)= 1.015E-03  nbox= 12
     iter. #   241  RMS(g-h-1)= 9.780E-04  nbox=  6
     iter. #   251  RMS(g-h-1)= 9.353E-04  nbox= 16
     iter. #   261  RMS(g-h-1)= 8.864E-04  nbox= 10
     iter. #   271  RMS(g-h-1)= 8.311E-04  nbox=  4
     iter. #   281  RMS(g-h-1)= 7.783E-04  nbox= 14
     iter. #   291  RMS(g-h-1)= 7.445E-04  nbox=  8
     iter. #   301  RMS(g-h-1)= 7.175E-04  nbox=  2
     iter. #   311  RMS(g-h-1)= 6.680E-04  nbox= 12
     iter. #   321  RMS(g-h-1)= 6.390E-04  nbox=  6
     iter. #   331  RMS(g-h-1)= 6.039E-04  nbox= 16
     iter. #   341  RMS(g-h-1)= 5.896E-04  nbox= 10
     iter. #   351  RMS(g-h-1)= 5.747E-04  nbox=  4
     iter. #   361  RMS(g-h-1)= 5.574E-04  nbox= 14
     iter. #   371  RMS(g-h-1)= 5.501E-04  nbox=  8
     iter. #   381  RMS(g-h-1)= 5.222E-04  nbox=  2
     iter. #   391  RMS(g-h-1)= 4.964E-04  nbox= 12
     iter. #   401  RMS(g-h-1)= 4.670E-04  nbox=  6
     iter. #   411  RMS(g-h-1)= 4.456E-04  nbox= 16
     iter. #   421  RMS(g-h-1)= 4.128E-04  nbox= 10
     iter. #   431  RMS(g-h-1)= 3.911E-04  nbox=  4
     iter. #   441  RMS(g-h-1)= 3.679E-04  nbox= 14
     iter. #   451  RMS(g-h-1)= 3.455E-04  nbox=  8
     iter. #   461  RMS(g-h-1)= 3.280E-04  nbox=  2
     iter. #   471  RMS(g-h-1)= 3.154E-04  nbox= 12
     iter. #   481  RMS(g-h-1)= 2.946E-04  nbox=  6
     iter. #   491  RMS(g-h-1)= 2.818E-04  nbox= 16
     iter. #   501  RMS(g-h-1)= 2.689E-04  nbox= 10
     iter. #   511  RMS(g-h-1)= 2.456E-04  nbox=  4
     iter. #   521  RMS(g-h-1)= 2.329E-04  nbox= 14
     iter. #   531  RMS(g-h-1)= 2.146E-04  nbox=  8
     iter. #   541  RMS(g-h-1)= 1.973E-04  nbox=  2
     iter. #   551  RMS(g-h-1)= 1.792E-04  nbox= 12
     iter. #   561  RMS(g-h-1)= 1.623E-04  nbox=  6
     iter. #   571  RMS(g-h-1)= 1.402E-04  nbox= 16
     iter. #   581  RMS(g-h-1)= 1.210E-04  nbox= 10
     iter. #   591  RMS(g-h-1)= 1.072E-04  nbox=  4
     iter. #   601  RMS(g-h-1)= 9.426E-05  nbox= 14
     iter. #   611  RMS(g-h-1)= 8.664E-05  nbox=  8
     iter. #   621  RMS(g-h-1)= 7.678E-05  nbox=  2
     iter. #   631  RMS(g-h-1)= 6.436E-05  nbox= 12
     iter. #   641  RMS(g-h-1)= 5.566E-05  nbox=  6
     iter. #   651  RMS(g-h-1)= 4.858E-05  nbox= 16
     iter. #   661  RMS(g-h-1)= 4.426E-05  nbox= 10
     iter. #   671  RMS(g-h-1)= 3.966E-05  nbox=  4
     iter. #   681  RMS(g-h-1)= 3.587E-05  nbox= 14
     iter. #   691  RMS(g-h-1)= 3.093E-05  nbox=  8
     iter. #   701  RMS(g-h-1)= 2.747E-05  nbox=  2
     iter. #   711  RMS(g-h-1)= 2.426E-05  nbox= 12
     iter. #   721  RMS(g-h-1)= 2.058E-05  nbox=  6
     iter. #   731  RMS(g-h-1)= 1.652E-05  nbox= 16
     iter. #   738  RMS(g-h-1)= 1.579E-05  nbox=  7

     End of Laue-RISM calculation


     convergence has been achieved in   738 iterations


     solvent charge   -0.09998, renormalised to   -0.10000

     Total number of solvent (in expand-cell)
     H2O           32.923429
     K+             0.582746
     OH-            0.681723

     Total charge of solvent (in expand-cell)
     H2O            0.000033 e
     K+             0.582746 e
     OH-           -0.682760 e
     Total         -0.099981 e

     Chemical potential of solvation (in expand-cell)
     H2O        GaussFluct   0.376889E+01 kcal/mol
     K+         GaussFluct  -0.149592E+02 kcal/mol
     OH-        GaussFluct   0.807813E+01 kcal/mol
     Total      GaussFluct  -0.311222E+01 kcal/mol


     total cpu time spent up to now is      175.6 secs

     total energy              =   -4838.61266994 Ry
     estimated scf accuracy    <      91.85885756 Ry

     iteration #  2     ecut=    40.00 Ry     beta= 0.10
     Davidson diagonalization with overlap
     ethr =  1.00E-02,  avg # of iterations =  2.0

     negative rho (up, down):  1.750E-03 0.000E+00

     Laue-RISM Calculation

     convergence threshold    = 1.585E-05
     iter. #     1  RMS(g-h-1)= 6.936E-02  nbox=  0
     iter. #    11  RMS(g-h-1)= 1.882E-02  nbox= 10
     iter. #    21  RMS(g-h-1)= 1.325E-02  nbox= 20
     iter. #    31  RMS(g-h-1)= 9.388E-03  nbox= 20
     iter. #    41  RMS(g-h-1)= 8.796E-03  nbox=  2
     iter. #    51  RMS(g-h-1)= 7.187E-03  nbox= 12
     iter. #    61  RMS(g-h-1)= 6.019E-03  nbox=  6
     iter. #    71  RMS(g-h-1)= 4.767E-03  nbox= 16
     iter. #    81  RMS(g-h-1)= 3.985E-03  nbox= 10
     iter. #    91  RMS(g-h-1)= 3.544E-03  nbox=  2
     iter. #   101  RMS(g-h-1)= 3.229E-03  nbox= 12
     iter. #   111  RMS(g-h-1)= 2.957E-03  nbox=  6
     iter. #   121  RMS(g-h-1)= 2.785E-03  nbox= 16
     iter. #   131  RMS(g-h-1)= 2.462E-03  nbox= 10
     iter. #   141  RMS(g-h-1)= 2.297E-03  nbox=  4
     iter. #   151  RMS(g-h-1)= 2.116E-03  nbox= 14
     iter. #   161  RMS(g-h-1)= 2.014E-03  nbox=  8
     iter. #   171  RMS(g-h-1)= 1.924E-03  nbox=  2
     iter. #   181  RMS(g-h-1)= 1.797E-03  nbox= 12
     iter. #   191  RMS(g-h-1)= 1.682E-03  nbox=  6
     iter. #   201  RMS(g-h-1)= 1.580E-03  nbox= 16
     iter. #   211  RMS(g-h-1)= 1.474E-03  nbox= 10
     iter. #   221  RMS(g-h-1)= 1.404E-03  nbox=  4
     iter. #   231  RMS(g-h-1)= 1.341E-03  nbox= 14
     iter. #   241  RMS(g-h-1)= 1.303E-03  nbox=  8
     iter. #   251  RMS(g-h-1)= 1.272E-03  nbox=  2
     iter. #   261  RMS(g-h-1)= 1.237E-03  nbox= 12
     iter. #   271  RMS(g-h-1)= 1.179E-03  nbox=  6
     iter. #   281  RMS(g-h-1)= 1.151E-03  nbox= 16
     iter. #   291  RMS(g-h-1)= 1.138E-03  nbox= 10
     iter. #   301  RMS(g-h-1)= 1.093E-03  nbox=  4
     iter. #   311  RMS(g-h-1)= 1.039E-03  nbox= 14
     iter. #   321  RMS(g-h-1)= 9.338E-04  nbox=  8
     iter. #   331  RMS(g-h-1)= 8.543E-04  nbox=  2
     iter. #   341  RMS(g-h-1)= 7.607E-04  nbox= 12
     iter. #   351  RMS(g-h-1)= 7.006E-04  nbox=  6
     iter. #   361  RMS(g-h-1)= 6.460E-04  nbox= 16
     iter. #   371  RMS(g-h-1)= 5.782E-04  nbox= 10
     iter. #   381  RMS(g-h-1)= 5.459E-04  nbox=  4
     iter. #   391  RMS(g-h-1)= 5.202E-04  nbox= 14
     iter. #   401  RMS(g-h-1)= 4.984E-04  nbox=  8
     iter. #   411  RMS(g-h-1)= 4.818E-04  nbox=  2
     iter. #   421  RMS(g-h-1)= 4.640E-04  nbox= 12
     iter. #   431  RMS(g-h-1)= 4.440E-04  nbox=  6
     iter. #   441  RMS(g-h-1)= 4.281E-04  nbox= 16
     iter. #   451  RMS(g-h-1)= 4.129E-04  nbox= 10
     iter. #   461  RMS(g-h-1)= 3.991E-04  nbox=  4
     iter. #   471  RMS(g-h-1)= 3.920E-04  nbox= 14
     iter. #   481  RMS(g-h-1)= 3.798E-04  nbox=  8
     iter. #   491  RMS(g-h-1)= 3.667E-04  nbox=  2
     iter. #   501  RMS(g-h-1)= 3.555E-04  nbox= 12
     iter. #   511  RMS(g-h-1)= 3.407E-04  nbox=  6
     iter. #   521  RMS(g-h-1)= 3.243E-04  nbox= 16
     iter. #   531  RMS(g-h-1)= 3.050E-04  nbox= 10
     iter. #   541  RMS(g-h-1)= 2.809E-04  nbox=  4
     iter. #   551  RMS(g-h-1)= 2.671E-04  nbox= 14
     iter. #   561  RMS(g-h-1)= 2.500E-04  nbox=  8
     iter. #   571  RMS(g-h-1)= 2.377E-04  nbox=  2
     iter. #   581  RMS(g-h-1)= 2.253E-04  nbox= 12
     iter. #   591  RMS(g-h-1)= 2.155E-04  nbox=  6
     iter. #   601  RMS(g-h-1)= 2.069E-04  nbox= 16
     iter. #   611  RMS(g-h-1)= 1.993E-04  nbox= 10
     iter. #   621  RMS(g-h-1)= 1.942E-04  nbox=  4
     iter. #   631  RMS(g-h-1)= 1.863E-04  nbox= 14
     iter. #   641  RMS(g-h-1)= 1.814E-04  nbox=  8
     iter. #   651  RMS(g-h-1)= 1.745E-04  nbox=  2
     iter. #   661  RMS(g-h-1)= 1.685E-04  nbox= 12
     iter. #   671  RMS(g-h-1)= 1.616E-04  nbox=  6
     iter. #   681  RMS(g-h-1)= 1.538E-04  nbox= 16
     iter. #   691  RMS(g-h-1)= 1.466E-04  nbox= 10
     iter. #   701  RMS(g-h-1)= 1.337E-04  nbox=  4
     iter. #   711  RMS(g-h-1)= 1.201E-04  nbox= 14
     iter. #   721  RMS(g-h-1)= 1.084E-04  nbox=  8
     iter. #   731  RMS(g-h-1)= 9.753E-05  nbox=  2
     iter. #   741  RMS(g-h-1)= 8.792E-05  nbox= 12
     iter. #   751  RMS(g-h-1)= 8.064E-05  nbox=  6
     iter. #   761  RMS(g-h-1)= 7.534E-05  nbox= 16
     iter. #   771  RMS(g-h-1)= 7.109E-05  nbox= 10
     iter. #   781  RMS(g-h-1)= 6.780E-05  nbox=  4
     iter. #   791  RMS(g-h-1)= 6.360E-05  nbox= 14
     iter. #   801  RMS(g-h-1)= 5.996E-05  nbox=  8
     iter. #   811  RMS(g-h-1)= 5.638E-05  nbox=  2
     iter. #   821  RMS(g-h-1)= 5.416E-05  nbox= 12
     iter. #   831  RMS(g-h-1)= 5.060E-05  nbox=  6
     iter. #   841  RMS(g-h-1)= 4.735E-05  nbox= 16
     iter. #   851  RMS(g-h-1)= 4.499E-05  nbox= 10
     iter. #   861  RMS(g-h-1)= 4.316E-05  nbox=  4
     iter. #   871  RMS(g-h-1)= 4.133E-05  nbox= 14
     iter. #   881  RMS(g-h-1)= 3.991E-05  nbox=  8
     iter. #   891  RMS(g-h-1)= 3.879E-05  nbox=  2
     iter. #   901  RMS(g-h-1)= 3.726E-05  nbox= 12
     iter. #   911  RMS(g-h-1)= 3.584E-05  nbox=  6
     iter. #   921  RMS(g-h-1)= 3.471E-05  nbox= 16
     iter. #   931  RMS(g-h-1)= 3.465E-05  nbox= 10
     iter. #   941  RMS(g-h-1)= 3.350E-05  nbox=  4
     iter. #   951  RMS(g-h-1)= 3.291E-05  nbox= 14
     iter. #   961  RMS(g-h-1)= 3.238E-05  nbox=  8
     iter. #   971  RMS(g-h-1)= 3.119E-05  nbox=  2
     iter. #   981  RMS(g-h-1)= 2.967E-05  nbox= 12
     iter. #   991  RMS(g-h-1)= 2.818E-05  nbox=  6
     iter. #  1001  RMS(g-h-1)= 2.653E-05  nbox= 16
     iter. #  1011  RMS(g-h-1)= 2.409E-05  nbox= 10
     iter. #  1021  RMS(g-h-1)= 2.126E-05  nbox=  4
     iter. #  1031  RMS(g-h-1)= 1.821E-05  nbox= 14
     iter. #  1041  RMS(g-h-1)= 1.631E-05  nbox=  8
     iter. #  1044  RMS(g-h-1)= 1.582E-05  nbox= 11

     End of Laue-RISM calculation


     convergence has been achieved in  1044 iterations


     solvent charge   -0.09904, renormalised to   -0.10000

     Total number of solvent (in expand-cell)
     H2O           32.948247
     K+             0.582638
     OH-            0.681864

     Total charge of solvent (in expand-cell)
     H2O           -0.000017 e
     K+             0.582638 e
     OH-           -0.681664 e
     Total         -0.099043 e

     Chemical potential of solvation (in expand-cell)
     H2O        GaussFluct   0.356340E+01 kcal/mol
     K+         GaussFluct  -0.123495E+03 kcal/mol
     OH-        GaussFluct   0.125398E+03 kcal/mol
     Total      GaussFluct   0.546682E+01 kcal/mol


     total cpu time spent up to now is      235.5 secs

     total energy              =   -4837.24210939 Ry
     estimated scf accuracy    <     409.37108369 Ry

     iteration #  3     ecut=    40.00 Ry     beta= 0.10
     RMM-DIIS diagonalization
     ethr =  1.00E-02,  avg # of iterations =  2.5

     negative rho (up, down):  1.281E-03 0.000E+00

     Laue-RISM Calculation

     convergence threshold    = 1.585E-05
     iter. #     1  RMS(g-h-1)= 5.156E-02  nbox=  0
     iter. #    11  RMS(g-h-1)= 1.327E-02  nbox= 10
     iter. #    21  RMS(g-h-1)= 6.150E-03  nbox= 20
     iter. #    31  RMS(g-h-1)= 3.936E-03  nbox= 20
     iter. #    41  RMS(g-h-1)= 3.347E-03  nbox= 20
     iter. #    51  RMS(g-h-1)= 3.034E-03  nbox= 20
     iter. #    61  RMS(g-h-1)= 3.205E-03  nbox= 20
     iter. #    71  RMS(g-h-1)= 2.697E-03  nbox=  8
     iter. #    81  RMS(g-h-1)= 2.010E-03  nbox= 18
     iter. #    91  RMS(g-h-1)= 1.557E-03  nbox= 20
     iter. #   101  RMS(g-h-1)= 1.391E-03  nbox=  2
     iter. #   111  RMS(g-h-1)= 1.105E-03  nbox= 12
     iter. #   121  RMS(g-h-1)= 1.029E-03  nbox= 20
     iter. #   131  RMS(g-h-1)= 9.803E-04  nbox=  8
     iter. #   141  RMS(g-h-1)= 9.472E-04  nbox=  2
     iter. #   151  RMS(g-h-1)= 8.789E-04  nbox= 12
     iter. #   161  RMS(g-h-1)= 8.472E-04  nbox=  6
     iter. #   171  RMS(g-h-1)= 7.988E-04  nbox= 16
     iter. #   181  RMS(g-h-1)= 7.826E-04  nbox= 10
     iter. #   191  RMS(g-h-1)= 7.538E-04  nbox=  4
     iter. #   201  RMS(g-h-1)= 7.453E-04  nbox= 14
     iter. #   211  RMS(g-h-1)= 7.117E-04  nbox=  8
     iter. #   221  RMS(g-h-1)= 7.241E-04  nbox=  2
     iter. #   231  RMS(g-h-1)= 6.297E-04  nbox= 12
     iter. #   241  RMS(g-h-1)= 5.997E-04  nbox=  4
     iter. #   251  RMS(g-h-1)= 5.679E-04  nbox= 14
     iter. #   261  RMS(g-h-1)= 5.502E-04  nbox=  8
     iter. #   271  RMS(g-h-1)= 5.439E-04  nbox=  2
     iter. #   281  RMS(g-h-1)= 5.291E-04  nbox= 12
     iter. #   291  RMS(g-h-1)= 5.169E-04  nbox=  6
     iter. #   301  RMS(g-h-1)= 4.883E-04  nbox= 16
     iter. #   311  RMS(g-h-1)= 4.750E-04  nbox= 10
     iter. #   321  RMS(g-h-1)= 4.632E-04  nbox=  4
     iter. #   331  RMS(g-h-1)= 4.174E-04  nbox= 14
     iter. #   341  RMS(g-h-1)= 3.872E-04  nbox=  6
     iter. #   351  RMS(g-h-1)= 3.737E-04  nbox= 16
     iter. #   361  RMS(g-h-1)= 3.629E-04  nbox= 10
     iter. #   371  RMS(g-h-1)= 3.467E-04  nbox=  4
     iter. #   381  RMS(g-h-1)= 3.326E-04  nbox= 14
     iter. #   391  RMS(g-h-1)= 3.247E-04  nbox=  8
     iter. #   401  RMS(g-h-1)= 3.176E-04  nbox=  2
     iter. #   411  RMS(g-h-1)= 3.085E-04  nbox= 12
     iter. #   421  RMS(g-h-1)= 3.005E-04  nbox=  6
     iter. #   431  RMS(g-h-1)= 2.953E-04  nbox= 16
     iter. #   441  RMS(g-h-1)= 2.922E-04  nbox= 10
     iter. #   451  RMS(g-h-1)= 2.862E-04  nbox=  4
     iter. #   461  RMS(g-h-1)= 2.761E-04  nbox= 14
     iter. #   471  RMS(g-h-1)= 2.645E-04  nbox=  8
     iter. #   481  RMS(g-h-1)= 2.518E-04  nbox=  2
     iter. #   491  RMS(g-h-1)= 2.383E-04  nbox= 12
     iter. #   501  RMS(g-h-1)= 2.239E-04  nbox=  6
     iter. #   511  RMS(g-h-1)= 2.180E-04  nbox= 16
     iter. #   521  RMS(g-h-1)= 2.016E-04  nbox= 10
     iter. #   531  RMS(g-h-1)= 1.903E-04  nbox=  4
     iter. #   541  RMS(g-h-1)= 1.818E-04  nbox= 14
     iter. #   551  RMS(g-h-1)= 1.770E-04  nbox=  8
     iter. #   561  RMS(g-h-1)= 1.715E-04  nbox=  2
     iter. #   571  RMS(g-h-1)= 1.667E-04  nbox= 12
     iter. #   581  RMS(g-h-1)= 1.631E-04  nbox=  6
     iter. #   591  RMS(g-h-1)= 1.585E-04  nbox= 16
     iter. #   601  RMS(g-h-1)= 1.516E-04  nbox= 10
     iter. #   611  RMS(g-h-1)= 1.441E-04  nbox=  4
     iter. #   621  RMS(g-h-1)= 1.350E-04  nbox= 14
     iter. #   631  RMS(g-h-1)= 1.292E-04  nbox=  8
     iter. #   641  RMS(g-h-1)= 1.212E-04  nbox=  2
     iter. #   651  RMS(g-h-1)= 1.091E-04  nbox= 12
     iter. #   661  RMS(g-h-1)= 1.002E-04  nbox=  6
     iter. #   671  RMS(g-h-1)= 9.296E-05  nbox= 16
     iter. #   681  RMS(g-h-1)= 8.862E-05  nbox= 10
     iter. #   691  RMS(g-h-1)= 8.396E-05  nbox=  4
     iter. #   701  RMS(g-h-1)= 7.795E-05  nbox= 14
     iter. #   711  RMS(g-h-1)= 7.449E-05  nbox=  8
     iter. #   721  RMS(g-h-1)= 7.125E-05  nbox=  2
     iter. #   731  RMS(g-h-1)= 6.782E-05  nbox= 12
     iter. #   741  RMS(g-h-1)= 6.506E-05  nbox=  6
     iter. #   751  RMS(g-h-1)= 6.244E-05  nbox= 16
     iter. #   761  RMS(g-h-1)= 6.031E-05  nbox= 10
     iter. #   771  RMS(g-h-1)= 5.883E-05  nbox=  4
     iter. #   781  RMS(g-h-1)= 5.773E-05  nbox= 14
     iter. #   791  RMS(g-h-1)= 5.678E-05  nbox=  8
     iter. #   801  RMS(g-h-1)= 5.600E-05  nbox=  2
     iter. #   811  RMS(g-h-1)= 5.506E-05  nbox= 12
     iter. #   821  RMS(g-h-1)= 5.417E-05  nbox=  6
     iter. #   831  RMS(g-h-1)= 5.330E-05  nbox= 16
     iter. #   841  RMS(g-h-1)= 5.227E-05  nbox= 10
     iter. #   851  RMS(g-h-1)= 5.046E-05  nbox=  4
     iter. #   861  RMS(g-h-1)= 4.812E-05  nbox= 14
     iter. #   871  RMS(g-h-1)= 4.604E-05  nbox=  8
     iter. #   881  RMS(g-h-1)= 4.378E-05  nbox=  2
     iter. #   891  RMS(g-h-1)= 4.125E-05  nbox= 12
     iter. #   901  RMS(g-h-1)= 3.944E-05  nbox=  6
     iter. #   911  RMS(g-h-1)= 3.749E-05  nbox= 16
     iter. #   921  RMS(g-h-1)= 3.531E-05  nbox= 10
     iter. #   931  RMS(g-h-1)= 3.247E-05  nbox=  4
     iter. #   941  RMS(g-h-1)= 3.010E-05  nbox= 14
     iter. #   951  RMS(g-h-1)= 2.803E-05  nbox=  8
     iter. #   961  RMS(g-h-1)= 2.624E-05  nbox=  2
     iter. #   971  RMS(g-h-1)= 2.485E-05  nbox= 12
     iter. #   981  RMS(g-h-1)= 2.326E-05  nbox=  6
     iter. #   991  RMS(g-h-1)= 2.128E-05  nbox= 16
     iter. #  1001  RMS(g-h-1)= 1.910E-05  nbox= 10
     iter. #  1011  RMS(g-h-1)= 1.745E-05  nbox=  4
     iter. #  1021  RMS(g-h-1)= 1.606E-05  nbox= 14
     iter. #  1024  RMS(g-h-1)= 1.566E-05  nbox= 17

     End of Laue-RISM calculation


     convergence has been achieved in  1024 iterations


     solvent charge   -0.10068, renormalised to   -0.10000

     Total number of solvent (in expand-cell)
     H2O           32.977433
     K+             0.582970
     OH-            0.683665

     Total charge of solvent (in expand-cell)
     H2O           -0.000125 e
     K+             0.582970 e
     OH-           -0.683522 e
     Total         -0.100677 e

     Chemical potential of solvation (in expand-cell)
     H2O        GaussFluct   0.362309E+01 kcal/mol
     K+         GaussFluct  -0.139587E+03 kcal/mol
     OH-        GaussFluct   0.142728E+03 kcal/mol
     Total      GaussFluct   0.676356E+01 kcal/mol


     total cpu time spent up to now is      294.3 secs

     total energy              =   -4842.88973808 Ry
     estimated scf accuracy    <      23.09671420 Ry

     iteration #  4     ecut=    40.00 Ry     beta= 0.10
     RMM-DIIS diagonalization
     ethr =  1.00E-02,  avg # of iterations =  2.5

     negative rho (up, down):  8.287E-04 0.000E+00

     Laue-RISM Calculation

     convergence threshold    = 1.585E-05
     iter. #     1  RMS(g-h-1)= 2.927E-02  nbox=  0
     iter. #    11  RMS(g-h-1)= 5.245E-03  nbox= 10
     iter. #    21  RMS(g-h-1)= 2.476E-03  nbox= 20
     iter. #    31  RMS(g-h-1)= 1.588E-03  nbox= 20
     iter. #    41  RMS(g-h-1)= 1.382E-03  nbox= 20
     iter. #    51  RMS(g-h-1)= 1.178E-03  nbox=  7
     iter. #    61  RMS(g-h-1)= 8.983E-04  nbox= 17
     iter. #    71  RMS(g-h-1)= 7.240E-04  nbox= 20
     iter. #    81  RMS(g-h-1)= 6.084E-04  nbox= 11
     iter. #    91  RMS(g-h-1)= 5.192E-04  nbox=  5
     iter. #   101  RMS(g-h-1)= 4.817E-04  nbox= 15
     iter. #   111  RMS(g-h-1)= 4.457E-04  nbox=  9
     iter. #   121  RMS(g-h-1)= 4.267E-04  nbox=  3
     iter. #   131  RMS(g-h-1)= 4.016E-04  nbox= 13
     iter. #   141  RMS(g-h-1)= 3.833E-04  nbox=  7
     iter. #   151  RMS(g-h-1)= 3.743E-04  nbox= 17
     iter. #   161  RMS(g-h-1)= 3.569E-04  nbox= 11
     iter. #   171  RMS(g-h-1)= 3.345E-04  nbox=  5
     iter. #   181  RMS(g-h-1)= 3.197E-04  nbox= 15
     iter. #   191  RMS(g-h-1)= 3.105E-04  nbox=  9
     iter. #   201  RMS(g-h-1)= 2.973E-04  nbox=  3
     iter. #   211  RMS(g-h-1)= 2.780E-04  nbox= 13
     iter. #   221  RMS(g-h-1)= 2.400E-04  nbox=  7
     iter. #   231  RMS(g-h-1)= 2.073E-04  nbox= 17
     iter. #   241  RMS(g-h-1)= 1.854E-04  nbox= 11
     iter. #   251  RMS(g-h-1)= 1.543E-04  nbox=  5
     iter. #   261  RMS(g-h-1)= 1.447E-04  nbox= 15
     iter. #   271  RMS(g-h-1)= 1.410E-04  nbox=  9
     iter. #   281  RMS(g-h-1)= 1.388E-04  nbox=  3
     iter. #   291  RMS(g-h-1)= 1.362E-04  nbox= 13
     iter. #   301  RMS(g-h-1)= 1.339E-04  nbox=  7
     iter. #   311  RMS(g-h-1)= 1.316E-04  nbox= 17
     iter. #   321  RMS(g-h-1)= 1.320E-04  nbox= 11
     iter. #   331  RMS(g-h-1)= 1.275E-04  nbox=  5
     iter. #   341  RMS(g-h-1)= 1.266E-04  nbox= 15
     iter. #   351  RMS(g-h-1)= 1.246E-04  nbox=  9
     iter. #   361  RMS(g-h-1)= 1.222E-04  nbox=  3
     iter. #   371  RMS(g-h-1)= 1.152E-04  nbox= 13
     iter. #   381  RMS(g-h-1)= 1.059E-04  nbox=  7
     iter. #   391  RMS(g-h-1)= 1.003E-04  nbox= 17
     iter. #   401  RMS(g-h-1)= 8.938E-05  nbox= 11
     iter. #   411  RMS(g-h-1)= 7.769E-05  nbox=  5
     iter. #   421  RMS(g-h-1)= 7.153E-05  nbox= 15
     iter. #   431  RMS(g-h-1)= 6.910E-05  nbox=  9
     iter. #   441  RMS(g-h-1)= 6.507E-05  nbox=  3
     iter. #   451  RMS(g-h-1)= 6.123E-05  nbox= 13
     iter. #   461  RMS(g-h-1)= 5.750E-05  nbox=  7
     iter. #   471  RMS(g-h-1)= 5.528E-05  nbox= 17
     iter. #   481  RMS(g-h-1)= 5.276E-05  nbox= 11
     iter. #   491  RMS(g-h-1)= 5.134E-05  nbox=  5
     iter. #   501  RMS(g-h-1)= 4.995E-05  nbox= 15
     iter. #   511  RMS(g-h-1)= 4.933E-05  nbox=  9
     iter. #   521  RMS(g-h-1)= 4.836E-05  nbox=  3
     iter. #   531  RMS(g-h-1)= 4.727E-05  nbox= 13
     iter. #   541  RMS(g-h-1)= 4.619E-05  nbox=  7
     iter. #   551  RMS(g-h-1)= 4.501E-05  nbox= 17
     iter. #   561  RMS(g-h-1)= 4.372E-05  nbox= 11
     iter. #   571  RMS(g-h-1)= 4.007E-05  nbox=  5
     iter. #   581  RMS(g-h-1)= 3.677E-05  nbox= 15
     iter. #   591  RMS(g-h-1)= 3.487E-05  nbox=  9
     iter. #   601  RMS(g-h-1)= 3.384E-05  nbox=  3
     iter. #   611  RMS(g-h-1)= 3.225E-05  nbox= 13
     iter. #   621  RMS(g-h-1)= 3.044E-05  nbox=  7
     iter. #   631  RMS(g-h-1)= 2.924E-05  nbox= 17
     iter. #   641  RMS(g-h-1)= 2.795E-05  nbox= 11
     iter. #   651  RMS(g-h-1)= 2.661E-05  nbox=  5
     iter. #   661  RMS(g-h-1)= 2.379E-05  nbox= 15
     iter. #   671  RMS(g-h-1)= 2.123E-05  nbox=  9
     iter. #   681  RMS(g-h-1)= 1.996E-05  nbox=  3
     iter. #   691  RMS(g-h-1)= 1.880E-05  nbox= 13
     iter. #   701  RMS(g-h-1)= 1.773E-05  nbox=  7
     iter. #   711  RMS(g-h-1)= 1.723E-05  nbox= 17
     iter. #   721  RMS(g-h-1)= 1.672E-05  nbox= 11
     iter. #   731  RMS(g-h-1)= 1.614E-05  nbox=  5
     iter. #   741  RMS(g-h-1)= 1.586E-05  nbox= 15
     iter. #   742  RMS(g-h-1)= 1.584E-05  nbox= 16

     End of Laue-RISM calculation


     convergence has been achieved in   742 iterations


     solvent charge   -0.09947, renormalised to   -0.10000

     Total number of solvent (in expand-cell)
     H2O           32.971619
     K+             0.582898
     OH-            0.682650

     Total charge of solvent (in expand-cell)
     H2O            0.000129 e
     K+             0.582898 e
     OH-           -0.682502 e
     Total         -0.099474 e

     Chemical potential of solvation (in expand-cell)
     H2O        GaussFluct   0.362968E+01 kcal/mol
     K+         GaussFluct  -0.127321E+03 kcal/mol
     OH-        GaussFluct   0.129518E+03 kcal/mol
     Total      GaussFluct   0.582638E+01 kcal/mol


     total cpu time spent up to now is      337.3 secs

     total energy              =   -4844.12641117 Ry
     estimated scf accuracy    <      12.89692403 Ry

     iteration #  5     ecut=    40.00 Ry     beta= 0.10
     Davidson diagonalization with overlap
     ethr =  5.66E-03,  avg # of iterations =  1.0

     negative rho (up, down):  6.258E-04 0.000E+00

     Laue-RISM Calculation

     convergence threshold    = 1.585E-05
     iter. #     1  RMS(g-h-1)= 2.694E-02  nbox=  0
     iter. #    11  RMS(g-h-1)= 6.468E-03  nbox= 10
     iter. #    21  RMS(g-h-1)= 3.023E-03  nbox= 20
     iter. #    31  RMS(g-h-1)= 2.124E-03  nbox= 20
     iter. #    41  RMS(g-h-1)= 1.898E-03  nbox= 20
     iter. #    51  RMS(g-h-1)= 1.695E-03  nbox=  7
     iter. #    61  RMS(g-h-1)= 1.385E-03  nbox= 17
     iter. #    71  RMS(g-h-1)= 1.224E-03  nbox= 11
     iter. #    81  RMS(g-h-1)= 1.025E-03  nbox=  5
     iter. #    91  RMS(g-h-1)= 7.124E-04  nbox= 15
     iter. #   101  RMS(g-h-1)= 6.668E-04  nbox= 20
     iter. #   111  RMS(g-h-1)= 6.117E-04  nbox=  9
     iter. #   121  RMS(g-h-1)= 5.892E-04  nbox=  3
     iter. #   131  RMS(g-h-1)= 5.594E-04  nbox= 13
     iter. #   141  RMS(g-h-1)= 5.416E-04  nbox=  7
     iter. #   151  RMS(g-h-1)= 5.211E-04  nbox= 17
     iter. #   161  RMS(g-h-1)= 5.044E-04  nbox= 11
     iter. #   171  RMS(g-h-1)= 4.968E-04  nbox=  5
     iter. #   181  RMS(g-h-1)= 4.764E-04  nbox= 15
     iter. #   191  RMS(g-h-1)= 4.384E-04  nbox=  9
     iter. #   201  RMS(g-h-1)= 4.190E-04  nbox=  3
     iter. #   211  RMS(g-h-1)= 3.758E-04  nbox= 13
     iter. #   221  RMS(g-h-1)= 3.488E-04  nbox=  7
     iter. #   231  RMS(g-h-1)= 3.315E-04  nbox= 17
     iter. #   241  RMS(g-h-1)= 3.056E-04  nbox= 11
     iter. #   251  RMS(g-h-1)= 2.833E-04  nbox=  5
     iter. #   261  RMS(g-h-1)= 2.625E-04  nbox= 15
     iter. #   271  RMS(g-h-1)= 2.455E-04  nbox=  9
     iter. #   281  RMS(g-h-1)= 2.389E-04  nbox=  3
     iter. #   291  RMS(g-h-1)= 2.265E-04  nbox= 13
     iter. #   301  RMS(g-h-1)= 2.125E-04  nbox=  7
     iter. #   311  RMS(g-h-1)= 2.012E-04  nbox= 17
     iter. #   321  RMS(g-h-1)= 1.926E-04  nbox= 11
     iter. #   331  RMS(g-h-1)= 1.859E-04  nbox=  5
     iter. #   341  RMS(g-h-1)= 1.810E-04  nbox= 15
     iter. #   351  RMS(g-h-1)= 1.766E-04  nbox=  9
     iter. #   361  RMS(g-h-1)= 1.720E-04  nbox=  3
     iter. #   371  RMS(g-h-1)= 1.665E-04  nbox= 13
     iter. #   381  RMS(g-h-1)= 1.613E-04  nbox=  7
     iter. #   391  RMS(g-h-1)= 1.551E-04  nbox= 17
     iter. #   401  RMS(g-h-1)= 1.489E-04  nbox= 11
     iter. #   411  RMS(g-h-1)= 1.385E-04  nbox=  5
     iter. #   421  RMS(g-h-1)= 1.272E-04  nbox= 15
     iter. #   431  RMS(g-h-1)= 1.177E-04  nbox=  9
     iter. #   441  RMS(g-h-1)= 1.042E-04  nbox=  3
     iter. #   451  RMS(g-h-1)= 9.063E-05  nbox= 13
     iter. #   461  RMS(g-h-1)= 8.131E-05  nbox=  7
     iter. #   471  RMS(g-h-1)= 7.591E-05  nbox= 17
     iter. #   481  RMS(g-h-1)= 7.188E-05  nbox= 11
     iter. #   491  RMS(g-h-1)= 6.887E-05  nbox=  5
     iter. #   501  RMS(g-h-1)= 6.697E-05  nbox= 15
     iter. #   511  RMS(g-h-1)= 6.485E-05  nbox=  9
     iter. #   521  RMS(g-h-1)= 6.186E-05  nbox=  3
     iter. #   531  RMS(g-h-1)= 5.691E-05  nbox= 13
     iter. #   541  RMS(g-h-1)= 5.519E-05  nbox=  7
     iter. #   551  RMS(g-h-1)= 5.337E-05  nbox= 17
     iter. #   561  RMS(g-h-1)= 5.228E-05  nbox=  9
     iter. #   571  RMS(g-h-1)= 5.086E-05  nbox=  3
     iter. #   581  RMS(g-h-1)= 4.902E-05  nbox= 13
     iter. #   591  RMS(g-h-1)= 4.750E-05  nbox=  7
     iter. #   601  RMS(g-h-1)= 4.615E-05  nbox= 17
     iter. #   611  RMS(g-h-1)= 4.469E-05  nbox= 11
     iter. #   621  RMS(g-h-1)= 4.393E-05  nbox=  5
     iter. #   631  RMS(g-h-1)= 4.257E-05  nbox= 15
     iter. #   641  RMS(g-h-1)= 4.027E-05  nbox=  9
     iter. #   651  RMS(g-h-1)= 3.708E-05  nbox=  3
     iter. #   661  RMS(g-h-1)= 3.457E-05  nbox= 13
     iter. #   671  RMS(g-h-1)= 3.322E-05  nbox=  7
     iter. #   681  RMS(g-h-1)= 3.267E-05  nbox= 17
     iter. #   691  RMS(g-h-1)= 3.049E-05  nbox= 11
     iter. #   701  RMS(g-h-1)= 2.878E-05  nbox=  5
     iter. #   711  RMS(g-h-1)= 2.739E-05  nbox= 15
     iter. #   721  RMS(g-h-1)= 2.610E-05  nbox=  9
     iter. #   731  RMS(g-h-1)= 2.449E-05  nbox=  3
     iter. #   741  RMS(g-h-1)= 2.301E-05  nbox= 13
     iter. #   751  RMS(g-h-1)= 2.111E-05  nbox=  7
     iter. #   761  RMS(g-h-1)= 1.968E-05  nbox= 17
     iter. #   771  RMS(g-h-1)= 1.866E-05  nbox= 11
     iter. #   781  RMS(g-h-1)= 1.701E-05  nbox=  5
     iter. #   789  RMS(g-h-1)= 1.571E-05  nbox= 13

     End of Laue-RISM calculation


     convergence has been achieved in   789 iterations


     solvent charge   -0.10071, renormalised to   -0.10000

     Total number of solvent (in expand-cell)
     H2O           32.950617
     K+             0.582802
     OH-            0.683210

     Total charge of solvent (in expand-cell)
     H2O           -0.000044 e
     K+             0.582802 e
     OH-           -0.683472 e
     Total         -0.100715 e

     Chemical potential of solvation (in expand-cell)
     H2O        GaussFluct   0.376172E+01 kcal/mol
     K+         GaussFluct  -0.122526E+03 kcal/mol
     OH-        GaussFluct   0.124334E+03 kcal/mol
     Total      GaussFluct   0.556929E+01 kcal/mol


     total cpu time spent up to now is      382.8 secs

     total energy              =   -4844.68107398 Ry
     estimated scf accuracy    <       1.29617786 Ry

     iteration #  6     ecut=    40.00 Ry     beta= 0.10
     RMM-DIIS diagonalization
     ethr =  5.69E-04,  avg # of iterations =  3.2

     negative rho (up, down):  4.225E-04 0.000E+00

     Laue-RISM Calculation

     convergence threshold    = 1.357E-05
     iter. #     1  RMS(g-h-1)= 4.843E-03  nbox=  0
     iter. #    11  RMS(g-h-1)= 6.092E-04  nbox= 10
     iter. #    21  RMS(g-h-1)= 3.676E-04  nbox= 20
     iter. #    31  RMS(g-h-1)= 2.285E-04  nbox= 20
     iter. #    41  RMS(g-h-1)= 2.084E-04  nbox= 20
     iter. #    51  RMS(g-h-1)= 1.761E-04  nbox= 11
     iter. #    61  RMS(g-h-1)= 1.359E-04  nbox=  5
     iter. #    71  RMS(g-h-1)= 1.014E-04  nbox= 15
     iter. #    81  RMS(g-h-1)= 9.228E-05  nbox=  3
     iter. #    91  RMS(g-h-1)= 8.414E-05  nbox= 13
     iter. #   101  RMS(g-h-1)= 8.070E-05  nbox=  7
     iter. #   111  RMS(g-h-1)= 7.843E-05  nbox= 17
     iter. #   121  RMS(g-h-1)= 6.965E-05  nbox= 11
     iter. #   131  RMS(g-h-1)= 6.644E-05  nbox=  5
     iter. #   141  RMS(g-h-1)= 6.000E-05  nbox= 15
     iter. #   151  RMS(g-h-1)= 5.280E-05  nbox= 20
     iter. #   161  RMS(g-h-1)= 5.018E-05  nbox=  6
     iter. #   171  RMS(g-h-1)= 4.848E-05  nbox= 16
     iter. #   181  RMS(g-h-1)= 4.605E-05  nbox= 10
     iter. #   191  RMS(g-h-1)= 4.414E-05  nbox=  4
     iter. #   201  RMS(g-h-1)= 4.257E-05  nbox= 14
     iter. #   211  RMS(g-h-1)= 3.979E-05  nbox=  8
     iter. #   221  RMS(g-h-1)= 3.667E-05  nbox=  2
     iter. #   231  RMS(g-h-1)= 3.330E-05  nbox= 12
     iter. #   241  RMS(g-h-1)= 3.170E-05  nbox=  6
     iter. #   251  RMS(g-h-1)= 3.018E-05  nbox= 16
     iter. #   261  RMS(g-h-1)= 2.804E-05  nbox= 10
     iter. #   271  RMS(g-h-1)= 2.745E-05  nbox=  4
     iter. #   281  RMS(g-h-1)= 2.685E-05  nbox= 14
     iter. #   291  RMS(g-h-1)= 2.622E-05  nbox=  8
     iter. #   301  RMS(g-h-1)= 2.565E-05  nbox=  2
     iter. #   311  RMS(g-h-1)= 2.521E-05  nbox= 12
     iter. #   321  RMS(g-h-1)= 2.524E-05  nbox=  6
     iter. #   331  RMS(g-h-1)= 2.509E-05  nbox= 16
     iter. #   341  RMS(g-h-1)= 2.473E-05  nbox= 10
     iter. #   351  RMS(g-h-1)= 2.438E-05  nbox=  4
     iter. #   361  RMS(g-h-1)= 2.410E-05  nbox= 14
     iter. #   371  RMS(g-h-1)= 2.367E-05  nbox=  8
     iter. #   381  RMS(g-h-1)= 2.287E-05  nbox=  2
     iter. #   391  RMS(g-h-1)= 2.174E-05  nbox= 12
     iter. #   401  RMS(g-h-1)= 2.052E-05  nbox=  6
     iter. #   411  RMS(g-h-1)= 1.912E-05  nbox= 16
     iter. #   421  RMS(g-h-1)= 1.802E-05  nbox= 10
     iter. #   431  RMS(g-h-1)= 1.745E-05  nbox=  4
     iter. #   441  RMS(g-h-1)= 1.725E-05  nbox= 14
     iter. #   451  RMS(g-h-1)= 1.693E-05  nbox=  8
     iter. #   461  RMS(g-h-1)= 1.672E-05  nbox=  2
     iter. #   471  RMS(g-h-1)= 1.631E-05  nbox= 12
     iter. #   481  RMS(g-h-1)= 1.622E-05  nbox=  6
     iter. #   491  RMS(g-h-1)= 1.604E-05  nbox= 16
     iter. #   501  RMS(g-h-1)= 1.588E-05  nbox= 10
     iter. #   511  RMS(g-h-1)= 1.579E-05  nbox=  4
     iter. #   521  RMS(g-h-1)= 1.567E-05  nbox= 14
     iter. #   531  RMS(g-h-1)= 1.530E-05  nbox=  8
     iter. #   541  RMS(g-h-1)= 1.499E-05  nbox=  2
     iter. #   551  RMS(g-h-1)= 1.464E-05  nbox= 12
     iter. #   561  RMS(g-h-1)= 1.416E-05  nbox=  6
     iter. #   571  RMS(g-h-1)= 1.367E-05  nbox= 16
     iter. #   574  RMS(g-h-1)= 1.352E-05  nbox=  3

     End of Laue-RISM calculation


     convergence has been achieved in   574 iterations


     solvent charge   -0.10063, renormalised to   -0.10000

     Total number of solvent (in expand-cell)
     H2O           32.944424
     K+             0.582652
     OH-            0.683027

     Total charge of solvent (in expand-cell)
     H2O            0.000023 e
     K+             0.582652 e
     OH-           -0.683307 e
     Total         -0.100632 e

     Chemical potential of solvation (in expand-cell)
     H2O        GaussFluct   0.378469E+01 kcal/mol
     K+         GaussFluct  -0.122787E+03 kcal/mol
     OH-        GaussFluct   0.124596E+03 kcal/mol
     Total      GaussFluct   0.559362E+01 kcal/mol


     total cpu time spent up to now is      417.2 secs

     total energy              =   -4845.04470700 Ry
     estimated scf accuracy    <       0.11310841 Ry

     iteration #  7     ecut=    40.00 Ry     beta= 0.10
     RMM-DIIS diagonalization
     ethr =  4.96E-05,  avg # of iterations =  3.4

     negative rho (up, down):  7.688E-04 0.000E+00

     Laue-RISM Calculation

     convergence threshold    = 1.007E-05
     iter. #     1  RMS(g-h-1)= 7.477E-03  nbox=  0
     iter. #    11  RMS(g-h-1)= 1.334E-03  nbox= 10
     iter. #    21  RMS(g-h-1)= 6.584E-04  nbox= 20
     iter. #    31  RMS(g-h-1)= 4.110E-04  nbox= 20
     iter. #    41  RMS(g-h-1)= 3.466E-04  nbox= 20
     iter. #    51  RMS(g-h-1)= 2.894E-04  nbox= 20
     iter. #    61  RMS(g-h-1)= 2.484E-04  nbox= 20
     iter. #    71  RMS(g-h-1)= 2.133E-04  nbox= 11
     iter. #    81  RMS(g-h-1)= 1.524E-04  nbox= 20
     iter. #    91  RMS(g-h-1)= 1.206E-04  nbox= 20
     iter. #   101  RMS(g-h-1)= 1.105E-04  nbox=  9
     iter. #   111  RMS(g-h-1)= 1.003E-04  nbox=  3
     iter. #   121  RMS(g-h-1)= 8.994E-05  nbox= 13
     iter. #   131  RMS(g-h-1)= 8.467E-05  nbox=  7
     iter. #   141  RMS(g-h-1)= 7.914E-05  nbox= 17
     iter. #   151  RMS(g-h-1)= 6.846E-05  nbox= 11
     iter. #   161  RMS(g-h-1)= 6.076E-05  nbox=  5
     iter. #   171  RMS(g-h-1)= 5.362E-05  nbox= 15
     iter. #   181  RMS(g-h-1)= 5.100E-05  nbox=  9
     iter. #   191  RMS(g-h-1)= 4.943E-05  nbox=  3
     iter. #   201  RMS(g-h-1)= 4.786E-05  nbox= 13
     iter. #   211  RMS(g-h-1)= 4.640E-05  nbox=  7
     iter. #   221  RMS(g-h-1)= 4.421E-05  nbox= 17
     iter. #   231  RMS(g-h-1)= 4.278E-05  nbox= 11
     iter. #   241  RMS(g-h-1)= 4.116E-05  nbox=  5
     iter. #   251  RMS(g-h-1)= 3.807E-05  nbox= 15
     iter. #   261  RMS(g-h-1)= 3.368E-05  nbox=  9
     iter. #   271  RMS(g-h-1)= 3.057E-05  nbox=  3
     iter. #   281  RMS(g-h-1)= 2.949E-05  nbox= 13
     iter. #   291  RMS(g-h-1)= 2.845E-05  nbox=  7
     iter. #   301  RMS(g-h-1)= 2.780E-05  nbox= 17
     iter. #   311  RMS(g-h-1)= 2.703E-05  nbox= 11
     iter. #   321  RMS(g-h-1)= 2.625E-05  nbox=  5
     iter. #   331  RMS(g-h-1)= 2.488E-05  nbox= 15
     iter. #   341  RMS(g-h-1)= 2.428E-05  nbox=  9
     iter. #   351  RMS(g-h-1)= 2.359E-05  nbox=  3
     iter. #   361  RMS(g-h-1)= 2.249E-05  nbox= 13
     iter. #   371  RMS(g-h-1)= 2.117E-05  nbox=  7
     iter. #   381  RMS(g-h-1)= 2.037E-05  nbox= 17
     iter. #   391  RMS(g-h-1)= 1.977E-05  nbox= 11
     iter. #   401  RMS(g-h-1)= 1.909E-05  nbox=  5
     iter. #   411  RMS(g-h-1)= 1.803E-05  nbox= 15
     iter. #   421  RMS(g-h-1)= 1.728E-05  nbox=  9
     iter. #   431  RMS(g-h-1)= 1.644E-05  nbox=  3
     iter. #   441  RMS(g-h-1)= 1.594E-05  nbox= 13
     iter. #   451  RMS(g-h-1)= 1.545E-05  nbox=  7
     iter. #   461  RMS(g-h-1)= 1.515E-05  nbox= 17
     iter. #   471  RMS(g-h-1)= 1.488E-05  nbox= 11
     iter. #   481  RMS(g-h-1)= 1.461E-05  nbox=  5
     iter. #   491  RMS(g-h-1)= 1.427E-05  nbox= 15
     iter. #   501  RMS(g-h-1)= 1.409E-05  nbox=  9
     iter. #   511  RMS(g-h-1)= 1.397E-05  nbox=  3
     iter. #   521  RMS(g-h-1)= 1.386E-05  nbox= 13
     iter. #   531  RMS(g-h-1)= 1.342E-05  nbox=  7
     iter. #   541  RMS(g-h-1)= 1.276E-05  nbox= 17
     iter. #   551  RMS(g-h-1)= 1.206E-05  nbox= 11
     iter. #   561  RMS(g-h-1)= 1.151E-05  nbox=  5
     iter. #   571  RMS(g-h-1)= 1.087E-05  nbox= 15
     iter. #   581  RMS(g-h-1)= 1.057E-05  nbox=  9
     iter. #   591  RMS(g-h-1)= 1.030E-05  nbox=  3
     iter. #   601  RMS(g-h-1)= 1.002E-05  nbox= 13

     End of Laue-RISM calculation


     convergence has been achieved in   601 iterations


     solvent charge   -0.10070, renormalised to   -0.10000

     Total number of solvent (in expand-cell)
     H2O           32.937584
     K+             0.582489
     OH-            0.682765

     Total charge of solvent (in expand-cell)
     H2O           -0.000009 e
     K+             0.582489 e
     OH-           -0.683175 e
     Total         -0.100696 e

     Chemical potential of solvation (in expand-cell)
     H2O        GaussFluct   0.381228E+01 kcal/mol
     K+         GaussFluct  -0.122967E+03 kcal/mol
     OH-        GaussFluct   0.124841E+03 kcal/mol
     Total      GaussFluct   0.568593E+01 kcal/mol


     total cpu time spent up to now is      453.0 secs

     total energy              =   -4845.05427368 Ry
     estimated scf accuracy    <       0.07404891 Ry

     iteration #  8     ecut=    40.00 Ry     beta= 0.10
     RMM-DIIS diagonalization
     ethr =  3.25E-05,  avg # of iterations =  2.8

     negative rho (up, down):  3.020E-03 0.000E+00

     Laue-RISM Calculation

     convergence threshold    = 5.346E-06
     iter. #     1  RMS(g-h-1)= 9.523E-03  nbox=  0
     iter. #    11  RMS(g-h-1)= 2.409E-03  nbox= 10
     iter. #    21  RMS(g-h-1)= 1.145E-03  nbox= 20
     iter. #    31  RMS(g-h-1)= 6.655E-04  nbox= 20
     iter. #    41  RMS(g-h-1)= 5.503E-04  nbox= 20
     iter. #    51  RMS(g-h-1)= 4.542E-04  nbox=  9
     iter. #    61  RMS(g-h-1)= 3.148E-04  nbox= 19
     iter. #    71  RMS(g-h-1)= 2.508E-04  nbox= 20
     iter. #    81  RMS(g-h-1)= 2.137E-04  nbox= 20
     iter. #    91  RMS(g-h-1)= 1.792E-04  nbox= 20
     iter. #   101  RMS(g-h-1)= 1.573E-04  nbox=  3
     iter. #   111  RMS(g-h-1)= 1.377E-04  nbox= 13
     iter. #   121  RMS(g-h-1)= 1.075E-04  nbox=  7
     iter. #   131  RMS(g-h-1)= 7.986E-05  nbox= 17
     iter. #   141  RMS(g-h-1)= 6.458E-05  nbox= 20
     iter. #   151  RMS(g-h-1)= 5.931E-05  nbox= 11
     iter. #   161  RMS(g-h-1)= 5.648E-05  nbox=  5
     iter. #   171  RMS(g-h-1)= 5.079E-05  nbox= 15
     iter. #   181  RMS(g-h-1)= 4.332E-05  nbox=  9
     iter. #   191  RMS(g-h-1)= 3.684E-05  nbox=  3
     iter. #   201  RMS(g-h-1)= 3.195E-05  nbox= 13
     iter. #   211  RMS(g-h-1)= 2.836E-05  nbox=  7
     iter. #   221  RMS(g-h-1)= 2.598E-05  nbox= 17
     iter. #   231  RMS(g-h-1)= 2.367E-05  nbox= 11
     iter. #   241  RMS(g-h-1)= 2.261E-05  nbox=  5
     iter. #   251  RMS(g-h-1)= 2.110E-05  nbox= 15
     iter. #   261  RMS(g-h-1)= 2.036E-05  nbox=  9
     iter. #   271  RMS(g-h-1)= 1.951E-05  nbox=  3
     iter. #   281  RMS(g-h-1)= 1.903E-05  nbox= 13
     iter. #   291  RMS(g-h-1)= 1.856E-05  nbox=  7
     iter. #   301  RMS(g-h-1)= 1.826E-05  nbox= 17
     iter. #   311  RMS(g-h-1)= 1.759E-05  nbox= 11
     iter. #   321  RMS(g-h-1)= 1.682E-05  nbox=  5
     iter. #   331  RMS(g-h-1)= 1.566E-05  nbox= 15
     iter. #   341  RMS(g-h-1)= 1.521E-05  nbox=  9
     iter. #   351  RMS(g-h-1)= 1.488E-05  nbox=  3
     iter. #   361  RMS(g-h-1)= 1.470E-05  nbox= 13
     iter. #   371  RMS(g-h-1)= 1.454E-05  nbox=  7
     iter. #   381  RMS(g-h-1)= 1.430E-05  nbox= 17
     iter. #   391  RMS(g-h-1)= 1.415E-05  nbox= 11
     iter. #   401  RMS(g-h-1)= 1.400E-05  nbox=  5
     iter. #   411  RMS(g-h-1)= 1.384E-05  nbox= 15
     iter. #   421  RMS(g-h-1)= 1.353E-05  nbox=  9
     iter. #   431  RMS(g-h-1)= 1.322E-05  nbox=  3
     iter. #   441  RMS(g-h-1)= 1.296E-05  nbox= 13
     iter. #   451  RMS(g-h-1)= 1.279E-05  nbox=  7
     iter. #   461  RMS(g-h-1)= 1.261E-05  nbox= 17
     iter. #   471  RMS(g-h-1)= 1.248E-05  nbox= 11
     iter. #   481  RMS(g-h-1)= 1.231E-05  nbox=  5
     iter. #   491  RMS(g-h-1)= 1.209E-05  nbox= 15
     iter. #   501  RMS(g-h-1)= 1.189E-05  nbox=  9
     iter. #   511  RMS(g-h-1)= 1.157E-05  nbox=  3
     iter. #   521  RMS(g-h-1)= 1.096E-05  nbox= 13
     iter. #   531  RMS(g-h-1)= 1.066E-05  nbox=  7
     iter. #   541  RMS(g-h-1)= 1.031E-05  nbox= 17
     iter. #   551  RMS(g-h-1)= 1.017E-05  nbox= 11
     iter. #   561  RMS(g-h-1)= 9.992E-06  nbox=  5
     iter. #   571  RMS(g-h-1)= 9.828E-06  nbox= 15
     iter. #   581  RMS(g-h-1)= 9.750E-06  nbox=  9
     iter. #   591  RMS(g-h-1)= 9.717E-06  nbox=  3
     iter. #   601  RMS(g-h-1)= 9.709E-06  nbox= 13
     iter. #   611  RMS(g-h-1)= 9.698E-06  nbox=  7
     iter. #   621  RMS(g-h-1)= 9.611E-06  nbox= 17
     iter. #   631  RMS(g-h-1)= 9.397E-06  nbox= 11
     iter. #   641  RMS(g-h-1)= 9.137E-06  nbox=  5
     iter. #   651  RMS(g-h-1)= 8.842E-06  nbox= 15
     iter. #   661  RMS(g-h-1)= 8.409E-06  nbox=  9
     iter. #   671  RMS(g-h-1)= 8.005E-06  nbox=  3
     iter. #   681  RMS(g-h-1)= 7.674E-06  nbox= 13
     iter. #   691  RMS(g-h-1)= 7.435E-06  nbox=  7
     iter. #   701  RMS(g-h-1)= 7.142E-06  nbox= 17
     iter. #   711  RMS(g-h-1)= 6.883E-06  nbox= 11
     iter. #   721  RMS(g-h-1)= 6.574E-06  nbox=  5
     iter. #   731  RMS(g-h-1)= 6.238E-06  nbox= 15
     iter. #   741  RMS(g-h-1)= 5.938E-06  nbox=  9
     iter. #   751  RMS(g-h-1)= 5.779E-06  nbox=  3
     iter. #   761  RMS(g-h-1)= 5.657E-06  nbox= 13
     iter. #   771  RMS(g-h-1)= 5.550E-06  nbox=  7
     iter. #   781  RMS(g-h-1)= 5.473E-06  nbox= 17
     iter. #   791  RMS(g-h-1)= 5.439E-06  nbox= 11
     iter. #   801  RMS(g-h-1)= 5.415E-06  nbox=  5
     iter. #   811  RMS(g-h-1)= 5.406E-06  nbox= 15
     iter. #   821  RMS(g-h-1)= 5.393E-06  nbox=  9
     iter. #   831  RMS(g-h-1)= 5.379E-06  nbox=  3
     iter. #   841  RMS(g-h-1)= 5.360E-06  nbox= 13
     iter. #   851  RMS(g-h-1)= 5.352E-06  nbox=  7
     iter. #   861  RMS(g-h-1)= 5.349E-06  nbox= 17
     iter. #   871  RMS(g-h-1)= 5.348E-06  nbox= 11
     iter. #   881  RMS(g-h-1)= 5.348E-06  nbox=  5
     iter. #   891  RMS(g-h-1)= 5.348E-06  nbox= 15
     iter. #   901  RMS(g-h-1)= 5.353E-06  nbox=  9
     iter. #   911  RMS(g-h-1)= 5.348E-06  nbox=  3
     iter. #   921  RMS(g-h-1)= 5.348E-06  nbox= 13
     iter. #   931  RMS(g-h-1)= 5.348E-06  nbox=  7
     iter. #   941  RMS(g-h-1)= 5.348E-06  nbox= 17
     iter. #   951  RMS(g-h-1)= 5.348E-06  nbox= 11
     iter. #   961  RMS(g-h-1)= 5.348E-06  nbox=  5
     iter. #   971  RMS(g-h-1)= 5.348E-06  nbox= 15
     iter. #   981  RMS(g-h-1)= 5.348E-06  nbox=  9
     iter. #   991  RMS(g-h-1)= 5.348E-06  nbox=  3
     iter. #  1001  RMS(g-h-1)= 5.348E-06  nbox= 13
     iter. #  1011  RMS(g-h-1)= 5.348E-06  nbox=  7
     iter. #  1021  RMS(g-h-1)= 5.348E-06  nbox= 17
     iter. #  1031  RMS(g-h-1)= 5.348E-06  nbox= 11
     iter. #  1041  RMS(g-h-1)= 5.348E-06  nbox=  5
     iter. #  1051  RMS(g-h-1)= 5.348E-06  nbox= 15
     iter. #  1061  RMS(g-h-1)= 5.348E-06  nbox=  9
     iter. #  1071  RMS(g-h-1)= 5.348E-06  nbox=  3
     iter. #  1081  RMS(g-h-1)= 5.348E-06  nbox= 13
     iter. #  1091  RMS(g-h-1)= 5.348E-06  nbox=  7
     iter. #  1101  RMS(g-h-1)= 5.348E-06  nbox= 17
     iter. #  1111  RMS(g-h-1)= 5.348E-06  nbox= 11
     iter. #  1121  RMS(g-h-1)= 5.348E-06  nbox=  5
     iter. #  1131  RMS(g-h-1)= 5.348E-06  nbox= 15
     iter. #  1141  RMS(g-h-1)= 5.348E-06  nbox=  9
     iter. #  1151  RMS(g-h-1)= 5.348E-06  nbox=  3
     iter. #  1161  RMS(g-h-1)= 5.348E-06  nbox= 13
     iter. #  1171  RMS(g-h-1)= 5.348E-06  nbox=  7
     iter. #  1181  RMS(g-h-1)= 5.347E-06  nbox= 17
     iter. #  1191  RMS(g-h-1)= 5.347E-06  nbox= 11
     iter. #  1201  RMS(g-h-1)= 5.347E-06  nbox=  5
     iter. #  1211  RMS(g-h-1)= 5.348E-06  nbox= 15
     iter. #  1221  RMS(g-h-1)= 5.347E-06  nbox=  9
     iter. #  1231  RMS(g-h-1)= 5.347E-06  nbox=  3
     iter. #  1241  RMS(g-h-1)= 5.347E-06  nbox= 13
     iter. #  1251  RMS(g-h-1)= 5.347E-06  nbox=  7
     iter. #  1261  RMS(g-h-1)= 5.347E-06  nbox= 17
     iter. #  1271  RMS(g-h-1)= 5.347E-06  nbox= 11
     iter. #  1281  RMS(g-h-1)= 5.347E-06  nbox=  5
     iter. #  1291  RMS(g-h-1)= 5.347E-06  nbox= 15
     iter. #  1301  RMS(g-h-1)= 5.347E-06  nbox=  9
     iter. #  1311  RMS(g-h-1)= 5.347E-06  nbox=  3
     iter. #  1321  RMS(g-h-1)= 5.347E-06  nbox= 13
     iter. #  1331  RMS(g-h-1)= 5.347E-06  nbox=  7
     iter. #  1341  RMS(g-h-1)= 5.347E-06  nbox= 17
     iter. #  1351  RMS(g-h-1)= 5.348E-06  nbox= 11
     iter. #  1361  RMS(g-h-1)= 5.347E-06  nbox=  5
     iter. #  1371  RMS(g-h-1)= 5.347E-06  nbox= 15
     iter. #  1381  RMS(g-h-1)= 5.347E-06  nbox=  9
     iter. #  1391  RMS(g-h-1)= 5.347E-06  nbox=  3
     iter. #  1401  RMS(g-h-1)= 5.347E-06  nbox= 13
     iter. #  1411  RMS(g-h-1)= 5.347E-06  nbox=  7
     iter. #  1421  RMS(g-h-1)= 5.347E-06  nbox= 17
     iter. #  1431  RMS(g-h-1)= 5.347E-06  nbox= 11
     iter. #  1441  RMS(g-h-1)= 5.347E-06  nbox=  5
     iter. #  1451  RMS(g-h-1)= 5.347E-06  nbox= 15
     iter. #  1461  RMS(g-h-1)= 5.347E-06  nbox=  9
     iter. #  1471  RMS(g-h-1)= 5.347E-06  nbox=  3
     iter. #  1481  RMS(g-h-1)= 5.347E-06  nbox= 13
     iter. #  1491  RMS(g-h-1)= 5.347E-06  nbox=  7
     iter. #  1501  RMS(g-h-1)= 5.347E-06  nbox= 17
     iter. #  1511  RMS(g-h-1)= 5.347E-06  nbox= 11
     iter. #  1521  RMS(g-h-1)= 5.347E-06  nbox=  5
     iter. #  1531  RMS(g-h-1)= 5.347E-06  nbox= 15
     iter. #  1541  RMS(g-h-1)= 5.347E-06  nbox=  9
     iter. #  1551  RMS(g-h-1)= 5.347E-06  nbox=  3
     iter. #  1561  RMS(g-h-1)= 5.347E-06  nbox= 13
     iter. #  1571  RMS(g-h-1)= 5.347E-06  nbox=  7
     iter. #  1581  RMS(g-h-1)= 5.347E-06  nbox= 17
     iter. #  1591  RMS(g-h-1)= 5.347E-06  nbox= 11
     iter. #  1601  RMS(g-h-1)= 5.347E-06  nbox=  5
     iter. #  1611  RMS(g-h-1)= 5.349E-06  nbox= 15
     iter. #  1621  RMS(g-h-1)= 5.347E-06  nbox=  9
     iter. #  1631  RMS(g-h-1)= 5.347E-06  nbox=  3
     iter. #  1641  RMS(g-h-1)= 5.347E-06  nbox= 13
     iter. #  1651  RMS(g-h-1)= 5.347E-06  nbox=  7
     iter. #  1661  RMS(g-h-1)= 5.347E-06  nbox= 17
     iter. #  1671  RMS(g-h-1)= 5.347E-06  nbox= 11
     iter. #  1681  RMS(g-h-1)= 5.347E-06  nbox=  5
     iter. #  1691  RMS(g-h-1)= 5.347E-06  nbox= 15
     iter. #  1701  RMS(g-h-1)= 5.347E-06  nbox=  9
     iter. #  1711  RMS(g-h-1)= 5.347E-06  nbox=  3
     iter. #  1721  RMS(g-h-1)= 5.347E-06  nbox= 13
     iter. #  1731  RMS(g-h-1)= 5.347E-06  nbox=  7
     iter. #  1741  RMS(g-h-1)= 5.347E-06  nbox= 17
     iter. #  1751  RMS(g-h-1)= 5.347E-06  nbox= 11
     iter. #  1761  RMS(g-h-1)= 5.347E-06  nbox=  5
     iter. #  1771  RMS(g-h-1)= 5.360E-06  nbox= 15
     iter. #  1781  RMS(g-h-1)= 5.347E-06  nbox=  9
     iter. #  1791  RMS(g-h-1)= 5.347E-06  nbox=  3
     iter. #  1801  RMS(g-h-1)= 5.347E-06  nbox= 13
     iter. #  1811  RMS(g-h-1)= 5.347E-06  nbox=  7
     iter. #  1821  RMS(g-h-1)= 5.347E-06  nbox= 17
     iter. #  1831  RMS(g-h-1)= 5.347E-06  nbox= 11
     iter. #  1841  RMS(g-h-1)= 5.347E-06  nbox=  5
     iter. #  1851  RMS(g-h-1)= 5.347E-06  nbox= 15
     iter. #  1861  RMS(g-h-1)= 5.347E-06  nbox=  9
     iter. #  1871  RMS(g-h-1)= 5.347E-06  nbox=  3
     iter. #  1881  RMS(g-h-1)= 5.347E-06  nbox= 13
     iter. #  1891  RMS(g-h-1)= 5.347E-06  nbox=  7
     iter. #  1901  RMS(g-h-1)= 5.347E-06  nbox= 17
     iter. #  1911  RMS(g-h-1)= 5.349E-06  nbox= 11
     iter. #  1921  RMS(g-h-1)= 5.347E-06  nbox=  5
     iter. #  1931  RMS(g-h-1)= 5.347E-06  nbox= 15
     iter. #  1941  RMS(g-h-1)= 5.347E-06  nbox=  9
     iter. #  1951  RMS(g-h-1)= 5.347E-06  nbox=  3
     iter. #  1961  RMS(g-h-1)= 5.347E-06  nbox= 13
     iter. #  1971  RMS(g-h-1)= 5.347E-06  nbox=  7
     iter. #  1981  RMS(g-h-1)= 5.347E-06  nbox= 17
     iter. #  1991  RMS(g-h-1)= 5.347E-06  nbox= 11
     iter. #  2001  RMS(g-h-1)= 5.347E-06  nbox=  5
     iter. #  2011  RMS(g-h-1)= 5.347E-06  nbox= 15
     iter. #  2021  RMS(g-h-1)= 5.347E-06  nbox=  9
     iter. #  2031  RMS(g-h-1)= 5.347E-06  nbox=  3
     iter. #  2041  RMS(g-h-1)= 5.347E-06  nbox= 13
     iter. #  2051  RMS(g-h-1)= 5.347E-06  nbox=  7
     iter. #  2061  RMS(g-h-1)= 5.347E-06  nbox= 17
     iter. #  2071  RMS(g-h-1)= 5.347E-06  nbox= 11
     iter. #  2081  RMS(g-h-1)= 5.347E-06  nbox=  5
     iter. #  2091  RMS(g-h-1)= 5.347E-06  nbox= 15
     iter. #  2101  RMS(g-h-1)= 5.347E-06  nbox=  9
     iter. #  2111  RMS(g-h-1)= 5.347E-06  nbox=  3
     iter. #  2121  RMS(g-h-1)= 5.347E-06  nbox= 13
     iter. #  2131  RMS(g-h-1)= 5.347E-06  nbox=  7
     iter. #  2141  RMS(g-h-1)= 5.347E-06  nbox= 17
     iter. #  2151  RMS(g-h-1)= 5.347E-06  nbox= 11
     iter. #  2161  RMS(g-h-1)= 5.347E-06  nbox=  5
     iter. #  2171  RMS(g-h-1)= 5.347E-06  nbox= 15
     iter. #  2181  RMS(g-h-1)= 5.347E-06  nbox=  9
     iter. #  2191  RMS(g-h-1)= 5.347E-06  nbox=  3
     iter. #  2201  RMS(g-h-1)= 5.347E-06  nbox= 13
     iter. #  2211  RMS(g-h-1)= 5.347E-06  nbox=  7
     iter. #  2221  RMS(g-h-1)= 5.347E-06  nbox= 17
     iter. #  2231  RMS(g-h-1)= 5.347E-06  nbox= 11
     iter. #  2241  RMS(g-h-1)= 5.347E-06  nbox=  5
     iter. #  2251  RMS(g-h-1)= 5.347E-06  nbox= 15
     iter. #  2261  RMS(g-h-1)= 5.347E-06  nbox=  9
     iter. #  2271  RMS(g-h-1)= 5.347E-06  nbox=  3
     iter. #  2281  RMS(g-h-1)= 5.347E-06  nbox= 13
     iter. #  2291  RMS(g-h-1)= 5.347E-06  nbox=  7
     iter. #  2301  RMS(g-h-1)= 5.347E-06  nbox= 17
     iter. #  2311  RMS(g-h-1)= 5.347E-06  nbox= 11
     iter. #  2321  RMS(g-h-1)= 5.347E-06  nbox=  5
     iter. #  2331  RMS(g-h-1)= 5.347E-06  nbox= 15
     iter. #  2341  RMS(g-h-1)= 5.347E-06  nbox=  9
     iter. #  2351  RMS(g-h-1)= 5.347E-06  nbox=  3
     iter. #  2361  RMS(g-h-1)= 5.347E-06  nbox= 13
     iter. #  2371  RMS(g-h-1)= 5.347E-06  nbox=  7
     iter. #  2381  RMS(g-h-1)= 5.347E-06  nbox= 17
     iter. #  2391  RMS(g-h-1)= 5.347E-06  nbox= 11
     iter. #  2401  RMS(g-h-1)= 5.347E-06  nbox=  5
     iter. #  2411  RMS(g-h-1)= 5.347E-06  nbox= 15
     iter. #  2421  RMS(g-h-1)= 5.347E-06  nbox=  9
     iter. #  2431  RMS(g-h-1)= 5.347E-06  nbox=  3
     iter. #  2441  RMS(g-h-1)= 5.347E-06  nbox= 13
     iter. #  2451  RMS(g-h-1)= 5.347E-06  nbox=  7
     iter. #  2461  RMS(g-h-1)= 5.347E-06  nbox= 17
     iter. #  2471  RMS(g-h-1)= 5.347E-06  nbox= 11
     iter. #  2481  RMS(g-h-1)= 5.347E-06  nbox=  5
     iter. #  2491  RMS(g-h-1)= 5.347E-06  nbox= 15
     iter. #  2501  RMS(g-h-1)= 5.347E-06  nbox=  9
     iter. #  2511  RMS(g-h-1)= 5.347E-06  nbox=  3
     iter. #  2521  RMS(g-h-1)= 5.347E-06  nbox= 13
     iter. #  2531  RMS(g-h-1)= 5.347E-06  nbox=  7
     iter. #  2541  RMS(g-h-1)= 5.347E-06  nbox= 17
     iter. #  2551  RMS(g-h-1)= 5.347E-06  nbox= 11
     iter. #  2561  RMS(g-h-1)= 5.346E-06  nbox=  5
     iter. #  2571  RMS(g-h-1)= 5.346E-06  nbox= 15
     iter. #  2581  RMS(g-h-1)= 5.346E-06  nbox=  9
     iter. #  2591  RMS(g-h-1)= 5.346E-06  nbox=  3
     iter. #  2601  RMS(g-h-1)= 5.347E-06  nbox= 13
     iter. #  2611  RMS(g-h-1)= 5.346E-06  nbox=  7
     iter. #  2621  RMS(g-h-1)= 5.353E-06  nbox= 17
     iter. #  2631  RMS(g-h-1)= 5.346E-06  nbox= 11
     iter. #  2641  RMS(g-h-1)= 5.346E-06  nbox=  5
     iter. #  2651  RMS(g-h-1)= 5.346E-06  nbox= 15
     iter. #  2661  RMS(g-h-1)= 5.346E-06  nbox=  9
     iter. #  2671  RMS(g-h-1)= 5.346E-06  nbox=  3
     iter. #  2681  RMS(g-h-1)= 5.346E-06  nbox= 13
     iter. #  2691  RMS(g-h-1)= 5.346E-06  nbox=  7
     iter. #  2701  RMS(g-h-1)= 5.347E-06  nbox= 17
     iter. #  2711  RMS(g-h-1)= 5.346E-06  nbox= 11
     iter. #  2721  RMS(g-h-1)= 5.346E-06  nbox=  5
     iter. #  2731  RMS(g-h-1)= 5.348E-06  nbox= 15
     iter. #  2741  RMS(g-h-1)= 5.346E-06  nbox=  9
     iter. #  2751  RMS(g-h-1)= 5.346E-06  nbox=  3
     iter. #  2761  RMS(g-h-1)= 5.346E-06  nbox= 13
     iter. #  2771  RMS(g-h-1)= 5.346E-06  nbox=  7
     iter. #  2781  RMS(g-h-1)= 5.346E-06  nbox= 17
     iter. #  2791  RMS(g-h-1)= 5.346E-06  nbox= 11
     iter. #  2801  RMS(g-h-1)= 5.346E-06  nbox=  5
     iter. #  2811  RMS(g-h-1)= 5.346E-06  nbox= 15
     iter. #  2821  RMS(g-h-1)= 5.346E-06  nbox=  9
     iter. #  2831  RMS(g-h-1)= 5.346E-06  nbox=  3
     iter. #  2841  RMS(g-h-1)= 5.346E-06  nbox= 13
     iter. #  2851  RMS(g-h-1)= 5.346E-06  nbox=  7
     iter. #  2861  RMS(g-h-1)= 5.346E-06  nbox= 17
     iter. #  2871  RMS(g-h-1)= 5.346E-06  nbox= 11
     iter. #  2881  RMS(g-h-1)= 5.346E-06  nbox=  5
     iter. #  2891  RMS(g-h-1)= 5.346E-06  nbox= 15
     iter. #  2901  RMS(g-h-1)= 5.346E-06  nbox=  9
     iter. #  2911  RMS(g-h-1)= 5.346E-06  nbox=  3
     iter. #  2921  RMS(g-h-1)= 5.346E-06  nbox= 13
     iter. #  2931  RMS(g-h-1)= 5.346E-06  nbox=  7
     iter. #  2941  RMS(g-h-1)= 5.347E-06  nbox= 17
     iter. #  2951  RMS(g-h-1)= 5.346E-06  nbox= 11
     iter. #  2961  RMS(g-h-1)= 5.346E-06  nbox=  5
     iter. #  2971  RMS(g-h-1)= 5.346E-06  nbox= 15
     iter. #  2981  RMS(g-h-1)= 5.346E-06  nbox=  9
     iter. #  2991  RMS(g-h-1)= 5.346E-06  nbox=  3
     iter. #  3001  RMS(g-h-1)= 5.346E-06  nbox= 13
     iter. #  3011  RMS(g-h-1)= 5.346E-06  nbox=  7
     iter. #  3021  RMS(g-h-1)= 5.346E-06  nbox= 17
     iter. #  3031  RMS(g-h-1)= 5.346E-06  nbox= 11
     iter. #  3041  RMS(g-h-1)= 5.346E-06  nbox=  5
     iter. #  3051  RMS(g-h-1)= 5.346E-06  nbox= 15
     iter. #  3061  RMS(g-h-1)= 5.347E-06  nbox=  9
     iter. #  3071  RMS(g-h-1)= 5.346E-06  nbox=  3
     iter. #  3081  RMS(g-h-1)= 5.346E-06  nbox= 13
     iter. #  3091  RMS(g-h-1)= 5.346E-06  nbox=  7
     iter. #  3101  RMS(g-h-1)= 5.346E-06  nbox= 17
     iter. #  3111  RMS(g-h-1)= 5.721E-06  nbox= 11
     iter. #  3121  RMS(g-h-1)= 5.346E-06  nbox=  5
     iter. #  3131  RMS(g-h-1)= 5.346E-06  nbox= 15
     iter. #  3141  RMS(g-h-1)= 5.347E-06  nbox=  9
     iter. #  3151  RMS(g-h-1)= 5.346E-06  nbox=  3
     iter. #  3161  RMS(g-h-1)= 5.346E-06  nbox= 13
     iter. #  3171  RMS(g-h-1)= 5.346E-06  nbox=  7
     iter. #  3181  RMS(g-h-1)= 5.346E-06  nbox= 17
     iter. #  3191  RMS(g-h-1)= 5.346E-06  nbox= 11
     iter. #  3201  RMS(g-h-1)= 5.346E-06  nbox=  5
     iter. #  3211  RMS(g-h-1)= 5.346E-06  nbox= 15
     iter. #  3221  RMS(g-h-1)= 5.346E-06  nbox=  9
     iter. #  3223  RMS(g-h-1)= 5.346E-06  nbox= 11

     End of Laue-RISM calculation


     convergence has been achieved in  3223 iterations


     solvent charge   -0.09995, renormalised to   -0.10000

     Total number of solvent (in expand-cell)
     H2O           32.932454
     K+             0.582184
     OH-            0.682179

     Total charge of solvent (in expand-cell)
     H2O            0.000020 e
     K+             0.582184 e
     OH-           -0.682158 e
     Total         -0.099953 e

     Chemical potential of solvation (in expand-cell)
     H2O        GaussFluct   0.380358E+01 kcal/mol
     K+         GaussFluct  -0.122755E+03 kcal/mol
     OH-        GaussFluct   0.124627E+03 kcal/mol
     Total      GaussFluct   0.567537E+01 kcal/mol


     total cpu time spent up to now is      633.9 secs

     total energy              =   -4845.04510076 Ry
     estimated scf accuracy    <       0.03016229 Ry

     iteration #  9     ecut=    40.00 Ry     beta= 0.10
     RMM-DIIS diagonalization
     ethr =  1.32E-05,  avg # of iterations =  2.9

     negative rho (up, down):  3.082E-03 0.000E+00

     Laue-RISM Calculation

     convergence threshold    = 6.371E-06
     iter. #     1  RMS(g-h-1)= 2.701E-03  nbox=  0
     iter. #    11  RMS(g-h-1)= 1.769E-04  nbox= 10
     iter. #    21  RMS(g-h-1)= 9.890E-05  nbox= 20
     iter. #    31  RMS(g-h-1)= 5.295E-05  nbox= 20
     iter. #    41  RMS(g-h-1)= 4.691E-05  nbox= 20
     iter. #    51  RMS(g-h-1)= 3.986E-05  nbox= 20
     iter. #    61  RMS(g-h-1)= 3.364E-05  nbox= 11
     iter. #    71  RMS(g-h-1)= 3.103E-05  nbox=  5
     iter. #    81  RMS(g-h-1)= 2.886E-05  nbox= 15
     iter. #    91  RMS(g-h-1)= 2.751E-05  nbox=  9
     iter. #   101  RMS(g-h-1)= 2.692E-05  nbox=  3
     iter. #   111  RMS(g-h-1)= 2.543E-05  nbox= 13
     iter. #   121  RMS(g-h-1)= 2.373E-05  nbox=  7
     iter. #   131  RMS(g-h-1)= 2.149E-05  nbox= 17
     iter. #   141  RMS(g-h-1)= 1.905E-05  nbox= 11
     iter. #   151  RMS(g-h-1)= 1.661E-05  nbox=  5
     iter. #   161  RMS(g-h-1)= 1.578E-05  nbox= 15
     iter. #   171  RMS(g-h-1)= 1.522E-05  nbox=  9
     iter. #   181  RMS(g-h-1)= 1.426E-05  nbox=  3
     iter. #   191  RMS(g-h-1)= 1.282E-05  nbox= 13
     iter. #   201  RMS(g-h-1)= 1.162E-05  nbox=  7
     iter. #   211  RMS(g-h-1)= 1.114E-05  nbox= 17
     iter. #   221  RMS(g-h-1)= 1.071E-05  nbox= 11
     iter. #   231  RMS(g-h-1)= 1.036E-05  nbox=  5
     iter. #   241  RMS(g-h-1)= 9.948E-06  nbox= 15
     iter. #   251  RMS(g-h-1)= 9.829E-06  nbox=  9
     iter. #   261  RMS(g-h-1)= 9.722E-06  nbox=  3
     iter. #   271  RMS(g-h-1)= 9.546E-06  nbox= 13
     iter. #   281  RMS(g-h-1)= 9.414E-06  nbox=  7
     iter. #   291  RMS(g-h-1)= 9.326E-06  nbox= 17
     iter. #   301  RMS(g-h-1)= 9.265E-06  nbox= 11
     iter. #   311  RMS(g-h-1)= 9.084E-06  nbox=  5
     iter. #   321  RMS(g-h-1)= 8.752E-06  nbox= 15
     iter. #   331  RMS(g-h-1)= 8.233E-06  nbox=  9
     iter. #   341  RMS(g-h-1)= 7.524E-06  nbox=  3
     iter. #   351  RMS(g-h-1)= 7.140E-06  nbox= 13
     iter. #   361  RMS(g-h-1)= 6.952E-06  nbox=  7
     iter. #   371  RMS(g-h-1)= 6.861E-06  nbox= 17
     iter. #   381  RMS(g-h-1)= 6.776E-06  nbox= 11
     iter. #   391  RMS(g-h-1)= 6.709E-06  nbox=  5
     iter. #   401  RMS(g-h-1)= 6.526E-06  nbox= 15
     iter. #   407  RMS(g-h-1)= 6.368E-06  nbox=  5

[...]


     solvent charge   -0.10006, renormalised to   -0.10000

     Total number of solvent (in expand-cell)
     H2O           32.946796
     K+             0.581927
     OH-            0.681957

     Total charge of solvent (in expand-cell)
     H2O           -0.000007 e
     K+             0.581927 e
     OH-           -0.681984 e
     Total         -0.100064 e

     Chemical potential of solvation (in expand-cell)
     H2O        GaussFluct   0.359929E+01 kcal/mol
     K+         GaussFluct  -0.122154E+03 kcal/mol
     OH-        GaussFluct   0.124006E+03 kcal/mol
     Total      GaussFluct   0.545146E+01 kcal/mol


     total cpu time spent up to now is     1108.2 secs

     total energy              =   -4845.04786787 Ry
     estimated scf accuracy    <       0.00000227 Ry

     iteration # 21     ecut=    40.00 Ry     beta= 0.10
     RMM-DIIS diagonalization
     ethr =  9.95E-10,  avg # of iterations =  3.1

     negative rho (up, down):  1.536E-03 0.000E+00

     Laue-RISM Calculation

     convergence threshold    = 1.000E-06
     iter. #     1  RMS(g-h-1)= 4.529E-05  nbox=  0
     iter. #    11  RMS(g-h-1)= 8.752E-06  nbox= 10
     iter. #    21  RMS(g-h-1)= 3.628E-06  nbox= 20
     iter. #    31  RMS(g-h-1)= 2.310E-06  nbox= 20
     iter. #    41  RMS(g-h-1)= 1.905E-06  nbox= 20
     iter. #    51  RMS(g-h-1)= 1.617E-06  nbox= 20
     iter. #    61  RMS(g-h-1)= 1.377E-06  nbox= 20
     iter. #    71  RMS(g-h-1)= 1.155E-06  nbox=  4
     iter. #    76  RMS(g-h-1)= 9.780E-07  nbox=  9

     End of Laue-RISM calculation


     convergence has been achieved in    76 iterations


     solvent charge   -0.09985, renormalised to   -0.10000

     Total number of solvent (in expand-cell)
     H2O           32.946586
     K+             0.581964
     OH-            0.681874

     Total charge of solvent (in expand-cell)
     H2O            0.000015 e
     K+             0.581964 e
     OH-           -0.681830 e
     Total         -0.099851 e

     Chemical potential of solvation (in expand-cell)
     H2O        GaussFluct   0.360225E+01 kcal/mol
     K+         GaussFluct  -0.122161E+03 kcal/mol
     OH-        GaussFluct   0.124010E+03 kcal/mol
     Total      GaussFluct   0.545191E+01 kcal/mol


     total cpu time spent up to now is     1114.7 secs

     total energy              =   -4845.04782810 Ry
     estimated scf accuracy    <       0.00000119 Ry

     iteration # 22     ecut=    40.00 Ry     beta= 0.10
     RMM-DIIS diagonalization
     ethr =  5.24E-10,  avg # of iterations =  2.7

     negative rho (up, down):  1.607E-03 0.000E+00

     Laue-RISM Calculation

     convergence threshold    = 1.000E-06
     iter. #     1  RMS(g-h-1)= 6.007E-05  nbox=  0
     iter. #    11  RMS(g-h-1)= 1.027E-05  nbox= 10
     iter. #    21  RMS(g-h-1)= 5.155E-06  nbox= 20
     iter. #    31  RMS(g-h-1)= 4.194E-06  nbox= 20
     iter. #    41  RMS(g-h-1)= 3.588E-06  nbox=  7
     iter. #    51  RMS(g-h-1)= 2.707E-06  nbox= 17
     iter. #    61  RMS(g-h-1)= 2.032E-06  nbox= 20
     iter. #    71  RMS(g-h-1)= 1.874E-06  nbox= 10
     iter. #    81  RMS(g-h-1)= 1.793E-06  nbox=  4
     iter. #    91  RMS(g-h-1)= 1.647E-06  nbox= 14
     iter. #   101  RMS(g-h-1)= 1.542E-06  nbox=  8
     iter. #   111  RMS(g-h-1)= 2.809E-06  nbox=  2
     iter. #   121  RMS(g-h-1)= 1.414E-06  nbox= 12
     iter. #   131  RMS(g-h-1)= 1.332E-06  nbox=  4
     iter. #   141  RMS(g-h-1)= 1.141E-06  nbox= 14
     iter. #   151  RMS(g-h-1)= 1.066E-06  nbox=  8
     iter. #   161  RMS(g-h-1)= 1.007E-06  nbox=  2
     iter. #   162  RMS(g-h-1)= 9.958E-07  nbox=  3

     End of Laue-RISM calculation


     convergence has been achieved in   162 iterations


     solvent charge   -0.09988, renormalised to   -0.10000

     Total number of solvent (in expand-cell)
     H2O           32.946372
     K+             0.581927
     OH-            0.681846

     Total charge of solvent (in expand-cell)
     H2O            0.000004 e
     K+             0.581927 e
     OH-           -0.681812 e
     Total         -0.099882 e

     Chemical potential of solvation (in expand-cell)
     H2O        GaussFluct   0.360250E+01 kcal/mol
     K+         GaussFluct  -0.122199E+03 kcal/mol
     OH-        GaussFluct   0.124058E+03 kcal/mol
     Total      GaussFluct   0.546168E+01 kcal/mol


     total cpu time spent up to now is     1125.8 secs

     End of self-consistent calculation

          k = 0.1250 0.0722 0.0000 ( 19861 PWs)   bands (ev):

  -117.2233-117.2156-117.2153-117.2153-116.9528-116.9452-116.9449-116.9449
  -116.9397-116.9321-116.9318-116.9318 -74.6522 -74.6522 -74.6478 -74.6202
   -74.6103 -74.6100 -74.6100 -74.5973 -74.5965 -74.5965 -74.5796 -74.5777
   -74.4049 -74.4049 -74.3933 -74.3933 -74.3909 -74.3797 -74.3537 -74.3432
   -74.3432 -74.3420 -74.3362 -74.3320 -74.3320 -74.3246 -74.3226 -74.3115
   -74.3065 -74.2994 -74.2991 -74.2991 -74.2911 -74.2844 -74.2841 -74.2841
   -13.1270 -11.1805  -9.7019  -9.4508  -9.3104  -9.3104  -9.1277  -9.0842
    -9.0842  -8.7568  -8.7170  -8.7170  -8.6210  -8.6210  -8.6203  -8.0406
    -8.0406  -8.0290  -7.6854  -7.6848  -7.6797  -7.6797  -7.6455  -7.5774
    -7.5629  -7.4583  -7.4583  -7.3862  -7.3754  -7.3634  -7.2938  -7.2376
    -7.2310  -7.2031  -7.2031  -6.8310  -6.8309  -6.8037  -6.8008  -6.7963
    -6.7265  -6.7233  -6.7233  -6.6469  -6.4895  -6.4124  -6.4005  -6.4005
    -6.3736  -6.3385  -6.3274  -6.3274  -6.3027  -6.3027  -6.2863  -6.2792
    -6.1761  -6.1761  -6.0983  -6.0983  -6.0833  -6.0685  -5.9205  -5.4614
    -4.7199  -4.7199  -4.4406  -4.3901  -3.6839  -3.6839  -2.6981  -2.6981
    -2.4507  -0.4746  -0.1990  -0.1534  -0.1534  -0.1027  -0.0882   0.4871
     0.7038   0.7038   0.7586   0.8799   1.7606   2.0080   2.0561   2.0561
     2.1024

          k = 0.1250 0.3608 0.0000 ( 19876 PWs)   bands (ev):

  -117.2215-117.2170-117.2161-117.2148-116.9511-116.9466-116.9457-116.9444
  -116.9380-116.9335-116.9326-116.9313 -74.6453 -74.6381 -74.6370 -74.6180
   -74.6121 -74.6109 -74.6098 -74.6087 -74.6011 -74.5954 -74.5919 -74.5818
   -74.3978 -74.3909 -74.3862 -74.3821 -74.3792 -74.3709 -74.3568 -74.3561
   -74.3488 -74.3452 -74.3449 -74.3380 -74.3372 -74.3295 -74.3268 -74.3183
   -74.3048 -74.3006 -74.2999 -74.2986 -74.2896 -74.2856 -74.2849 -74.2836
   -12.4108 -10.5264 -10.1195  -9.6033  -9.2019  -9.1753  -9.0042  -8.9300
    -8.8097  -8.6519  -8.5936  -8.5316  -8.3665  -8.3334  -8.3223  -8.0364
    -8.0238  -8.0144  -7.9397  -7.8107  -7.7866  -7.7224  -7.6786  -7.6672
    -7.5495  -7.5169  -7.4552  -7.4392  -7.3888  -7.3717  -7.3364  -7.3315
    -7.3232  -7.2384  -7.1122  -7.0891  -7.0868  -7.0079  -6.9977  -6.9776
    -6.9570  -6.9366  -6.9194  -6.8518  -6.7937  -6.7753  -6.7523  -6.6704
    -6.6439  -6.6393  -6.5787  -6.4897  -6.4897  -6.4278  -6.4254  -6.3299
    -6.3287  -6.2979  -6.2956  -6.2761  -6.2248  -6.2212  -6.1528  -5.6635
    -5.5992  -5.2015  -4.7876  -3.5804  -3.2110  -3.1348  -2.4650  -2.3266
    -1.6793   0.0747   0.1734   0.3291   0.5166   0.5875   0.8974   1.2009
     1.2068   1.4267   1.5550   2.1720   2.4686   2.6648   2.6852   2.8600
     3.0653

          k = 0.1250-0.5052 0.0000 ( 19917 PWs)   bands (ev):

  -117.2201-117.2185-117.2162-117.2147-116.9496-116.9481-116.9458-116.9443
  -116.9365-116.9349-116.9327-116.9311 -74.6378 -74.6351 -74.6232 -74.6182
   -74.6160 -74.6140 -74.6111 -74.6102 -74.6090 -74.6028 -74.5890 -74.5839
   -74.3849 -74.3842 -74.3757 -74.3734 -74.3729 -74.3710 -74.3655 -74.3641
   -74.3597 -74.3538 -74.3526 -74.3413 -74.3367 -74.3292 -74.3255 -74.3181
   -74.3034 -74.3020 -74.2999 -74.2985 -74.2883 -74.2870 -74.2850 -74.2835
   -11.7353 -10.9235  -9.9684  -9.6248  -9.4518  -8.9133  -8.8352  -8.7474
    -8.6698  -8.6296  -8.4426  -8.4331  -8.2692  -8.2329  -8.1999  -8.0790
    -8.0504  -8.0359  -7.9690  -7.9603  -7.8587  -7.8419  -7.6764  -7.6707
    -7.5646  -7.5437  -7.4712  -7.4554  -7.4420  -7.4261  -7.4179  -7.3841
    -7.3729  -7.3026  -7.2805  -7.2395  -7.2385  -7.2214  -7.1667  -7.1461
    -7.0969  -6.9331  -6.9213  -6.8803  -6.8142  -6.8073  -6.7881  -6.7574
    -6.7329  -6.6856  -6.5965  -6.5690  -6.5618  -6.4928  -6.4890  -6.4408
    -6.3815  -6.3262  -6.2956  -6.2843  -6.2810  -6.2268  -6.2231  -6.1546
    -5.5536  -4.7738  -4.6681  -3.9888  -3.5706  -2.3636  -2.2590  -2.2241
    -1.1495  -0.4239   0.7449   0.8187   0.8381   1.2302   1.2822   1.6693
     1.7414   1.9137   2.0628   2.1005   2.1765   2.2117   2.7876   2.8612
     2.9990

          k = 0.1250-0.2165 0.0000 ( 19876 PWs)   bands (ev):

  -117.2227-117.2159-117.2159-117.2150-116.9522-116.9455-116.9455-116.9446
  -116.9391-116.9324-116.9324-116.9315 -74.6471 -74.6465 -74.6465 -74.6194
   -74.6107 -74.6107 -74.6095 -74.6049 -74.5952 -74.5952 -74.5873 -74.5770
   -74.3989 -74.3989 -74.3902 -74.3873 -74.3873 -74.3791 -74.3611 -74.3495
   -74.3437 -74.3424 -74.3424 -74.3320 -74.3312 -74.3312 -74.3220 -74.3108
   -74.3059 -74.2997 -74.2997 -74.2989 -74.2906 -74.2846 -74.2846 -74.2838
   -12.8844 -10.9542  -9.5490  -9.5490  -9.5229  -9.1312  -9.0959  -9.0959
    -8.9696  -8.7101  -8.7101  -8.6386  -8.5150  -8.5150  -8.5020  -8.0347
    -8.0264  -8.0263  -7.7919  -7.6529  -7.6482  -7.6482  -7.6476  -7.6359
    -7.6124  -7.4817  -7.4665  -7.4665  -7.3766  -7.3394  -7.3005  -7.2805
    -7.2805  -7.2503  -7.1467  -6.9523  -6.9179  -6.9179  -6.8901  -6.8200
    -6.7725  -6.7425  -6.7425  -6.7201  -6.6198  -6.5993  -6.5483  -6.5483
    -6.4582  -6.4582  -6.4313  -6.4246  -6.3684  -6.3684  -6.3427  -6.3020
    -6.2879  -6.2204  -6.2204  -6.1917  -6.1917  -6.1791  -5.6567  -5.6567
    -5.6291  -4.7368  -4.7368  -3.9717  -3.8644  -3.0434  -2.5176  -2.3124
    -2.3124  -0.2582  -0.1662   0.0397   0.1267   0.3154   0.3154   0.7252
     0.9806   1.1457   1.3232   1.3232   1.9221   1.9966   2.1366   2.1366
     2.2240

          k = 0.3750-0.0722 0.0000 ( 19876 PWs)   bands (ev):

  -117.2215-117.2170-117.2161-117.2148-116.9511-116.9466-116.9457-116.9444
  -116.9380-116.9335-116.9326-116.9313 -74.6453 -74.6381 -74.6370 -74.6180
   -74.6121 -74.6109 -74.6098 -74.6087 -74.6011 -74.5954 -74.5919 -74.5818
   -74.3978 -74.3909 -74.3862 -74.3821 -74.3792 -74.3709 -74.3568 -74.3561
   -74.3488 -74.3452 -74.3449 -74.3380 -74.3372 -74.3295 -74.3268 -74.3183
   -74.3048 -74.3006 -74.2999 -74.2986 -74.2896 -74.2856 -74.2849 -74.2836
   -12.4108 -10.5264 -10.1195  -9.6033  -9.2019  -9.1753  -9.0042  -8.9300
    -8.8097  -8.6519  -8.5936  -8.5316  -8.3665  -8.3334  -8.3223  -8.0364
    -8.0238  -8.0144  -7.9397  -7.8107  -7.7866  -7.7224  -7.6786  -7.6672
    -7.5495  -7.5169  -7.4552  -7.4392  -7.3888  -7.3717  -7.3364  -7.3315
    -7.3232  -7.2384  -7.1122  -7.0891  -7.0868  -7.0079  -6.9977  -6.9776
    -6.9570  -6.9366  -6.9194  -6.8518  -6.7937  -6.7753  -6.7523  -6.6704
    -6.6439  -6.6393  -6.5787  -6.4897  -6.4897  -6.4278  -6.4254  -6.3299
    -6.3287  -6.2979  -6.2956  -6.2761  -6.2248  -6.2212  -6.1528  -5.6635
    -5.5992  -5.2015  -4.7876  -3.5804  -3.2110  -3.1348  -2.4650  -2.3266
    -1.6793   0.0747   0.1734   0.3291   0.5166   0.5875   0.8974   1.2009
     1.2068   1.4267   1.5550   2.1720   2.4684   2.6612   2.6852   2.8601
     3.0654

          k = 0.3750 0.2165 0.0000 ( 19929 PWs)   bands (ev):

  -117.2210-117.2178-117.2153-117.2153-116.9506-116.9474-116.9449-116.9449
  -116.9374-116.9343-116.9318-116.9318 -74.6431 -74.6430 -74.6274 -74.6173
   -74.6131 -74.6099 -74.6099 -74.6056 -74.6056 -74.5983 -74.5921 -74.5848
   -74.3976 -74.3976 -74.3859 -74.3859 -74.3709 -74.3598 -74.3506 -74.3506
   -74.3486 -74.3427 -74.3414 -74.3395 -74.3395 -74.3369 -74.3316 -74.3297
   -74.3044 -74.3014 -74.2991 -74.2991 -74.2892 -74.2864 -74.2841 -74.2841
   -12.1815 -10.5819 -10.3312  -9.3328  -9.1219  -9.1219  -9.0732  -8.8384
    -8.8384  -8.6757  -8.5148  -8.5148  -8.3207  -8.2668  -8.2668  -8.0053
    -8.0053  -7.9987  -7.9950  -7.8627  -7.8563  -7.8563  -7.6679  -7.6460
    -7.4901  -7.4901  -7.4779  -7.4008  -7.4008  -7.3920  -7.3303  -7.2990
    -7.2879  -7.2037  -7.1824  -7.1818  -7.1818  -7.1038  -7.1037  -7.0945
    -7.0610  -6.9272  -6.9213  -6.8464  -6.8464  -6.8322  -6.7760  -6.6903
    -6.6741  -6.6741  -6.5543  -6.5207  -6.5207  -6.5142  -6.5065  -6.4540
    -6.4298  -6.2912  -6.2912  -6.2747  -6.2556  -6.1869  -6.1869  -6.0999
    -5.0209  -4.7442  -4.7442  -3.6759  -3.6217  -3.6217  -2.8777  -1.3031
    -1.3031  -0.6478   0.3883   0.7546   0.7866   0.7866   0.8185   1.4384
     1.6505   2.0167   2.0167   2.0553   2.6341   2.6814   2.7400   2.7416
     2.7418

          k = 0.3750-0.6495 0.0000 ( 19872 PWs)   bands (ev):

  -117.2188-117.2188-117.2175-117.2143-116.9484-116.9484-116.9471-116.9439
  -116.9353-116.9353-116.9339-116.9308 -74.6366 -74.6293 -74.6234 -74.6167
   -74.6167 -74.6142 -74.6142 -74.6127 -74.6085 -74.5944 -74.5918 -74.5918
   -74.3919 -74.3847 -74.3803 -74.3731 -74.3672 -74.3636 -74.3636 -74.3561
   -74.3523 -74.3523 -74.3450 -74.3450 -74.3389 -74.3335 -74.3335 -74.3278
   -74.3023 -74.3023 -74.3010 -74.2982 -74.2873 -74.2873 -74.2861 -74.2832
   -11.1036 -11.1036 -10.3544  -9.5167  -9.5167  -9.1234  -8.5522  -8.5522
    -8.5302  -8.5274  -8.3548  -8.3517  -8.3203  -8.3021  -8.1824  -8.1677
    -8.1677  -8.0192  -8.0192  -7.9314  -7.7682  -7.7439  -7.7338  -7.7338
    -7.7166  -7.6453  -7.6423  -7.6423  -7.5726  -7.5726  -7.4234  -7.3666
    -7.3574  -7.3409  -7.2756  -7.2636  -7.2636  -7.2540  -7.1711  -7.1711
    -6.9932  -6.9932  -6.8831  -6.8539  -6.7902  -6.7800  -6.7800  -6.7544
    -6.6850  -6.6850  -6.6200  -6.4836  -6.4836  -6.4252  -6.4212  -6.4212
    -6.3728  -6.3439  -6.3385  -6.3385  -6.3166  -6.3156  -6.1401  -6.1401
    -6.0726  -5.6277  -4.1266  -4.1266  -3.3645  -2.1092  -1.4044  -1.4044
    -0.7766  -0.3563  -0.2887  -0.2529   1.4467   1.4659   1.4661   1.5836
     1.9423   1.9428   1.9804   1.9804   2.3244   2.6194   2.6347   2.7263
     2.7816

          k = 0.3750-0.3608 0.0000 ( 19917 PWs)   bands (ev):

  -117.2201-117.2185-117.2162-117.2147-116.9496-116.9481-116.9458-116.9443
  -116.9365-116.9349-116.9327-116.9311 -74.6378 -74.6351 -74.6232 -74.6182
   -74.6160 -74.6140 -74.6111 -74.6102 -74.6090 -74.6028 -74.5890 -74.5839
   -74.3849 -74.3842 -74.3757 -74.3734 -74.3729 -74.3710 -74.3655 -74.3641
   -74.3597 -74.3538 -74.3526 -74.3413 -74.3367 -74.3292 -74.3255 -74.3181
   -74.3034 -74.3020 -74.2999 -74.2985 -74.2883 -74.2870 -74.2850 -74.2835
   -11.7353 -10.9235  -9.9684  -9.6248  -9.4518  -8.9133  -8.8352  -8.7474
    -8.6698  -8.6296  -8.4426  -8.4331  -8.2692  -8.2329  -8.1999  -8.0790
    -8.0504  -8.0359  -7.9690  -7.9603  -7.8587  -7.8419  -7.6764  -7.6707
    -7.5646  -7.5437  -7.4712  -7.4554  -7.4420  -7.4261  -7.4179  -7.3841
    -7.3729  -7.3026  -7.2805  -7.2395  -7.2385  -7.2214  -7.1667  -7.1461
    -7.0969  -6.9331  -6.9213  -6.8803  -6.8142  -6.8073  -6.7881  -6.7574
    -6.7329  -6.6856  -6.5965  -6.5690  -6.5618  -6.4928  -6.4890  -6.4408
    -6.3815  -6.3262  -6.2956  -6.2843  -6.2810  -6.2268  -6.2231  -6.1546
    -5.5536  -4.7738  -4.6681  -3.9888  -3.5706  -2.3636  -2.2590  -2.2241
    -1.1495  -0.4239   0.7449   0.8187   0.8381   1.2302   1.2822   1.6693
     1.7414   1.9133   2.0628   2.1005   2.1765   2.2118   2.7875   2.8570
     3.0019

     the Fermi energy is    -4.7476 ev

!    total energy              =   -4845.04781960 Ry
     estimated scf accuracy    <       0.00000019 Ry
     smearing contrib. (-TS)   =      -0.00783708 Ry
     internal energy E=F+TS    =   -4845.03998252 Ry

     The total energy is F=E-TS. E is the sum of the following terms:
     one-electron contribution =   26907.29584870 Ry
     hartree contribution      =  -13477.18509959 Ry
     xc contribution           =    -465.21710642 Ry
     ewald contribution        =  -17809.95104590 Ry
     solvation energy (RISM)   =       0.01741912 Ry
     level-shifting contrib.   =       0.00000157 Ry

     convergence has been achieved in  22 iterations

     negative rho (up, down):  1.607E-03 0.000E+00

     Forces acting on atoms (cartesian axes, Ry/au):

     atom    1 type  1   force =     0.00026351    0.00015395    0.00570336
     atom    2 type  1   force =    -0.00001406   -0.00001074    0.00027236
     atom    3 type  1   force =    -0.00025675   -0.00014916   -0.00785170
     atom    4 type  1   force =     0.00027056    0.00015861    0.00571411
     atom    5 type  1   force =    -0.00000937   -0.00000346    0.00026901
     atom    6 type  1   force =    -0.00025959   -0.00014388   -0.00784602
     atom    7 type  1   force =     0.00027277    0.00015987    0.00571218
     atom    8 type  1   force =    -0.00000864   -0.00000821    0.00027460
     atom    9 type  1   force =    -0.00025403   -0.00014532   -0.00784901
     atom   10 type  1   force =     0.00026515    0.00014970    0.00570808
     atom   11 type  1   force =    -0.00001153   -0.00001002    0.00027090
     atom   12 type  1   force =    -0.00025803   -0.00015134   -0.00784462

     Total force =     0.015707     Total SCF correction =     0.001990
     SCF correction compared to forces is large: reduce conv_thr to get better values

     Writing all to output data dir ./output/opt.save/ :
     XML data file, charge density, RISM restart, pseudopotentials, RISM molfiles, collected wavefunctions
 
     init_run     :     63.49s CPU     65.93s WALL (       1 calls)
     electrons    :    958.25s CPU    995.33s WALL (       1 calls)
     forces       :      0.92s CPU      0.97s WALL (       1 calls)

     Called by init_run:
     wfcinit      :      0.66s CPU      0.68s WALL (       1 calls)
     potinit      :     62.55s CPU     64.91s WALL (       1 calls)
     hinit0       :      0.16s CPU      0.18s WALL (       1 calls)

     Called by electrons:
     c_bands      :     50.01s CPU     51.00s WALL (      22 calls)
     sum_band     :      5.38s CPU      6.13s WALL (      22 calls)
     v_of_rho     :      0.35s CPU      0.42s WALL (      23 calls)
     newd         :      0.72s CPU      1.38s WALL (      23 calls)
     mix_rho      :      0.06s CPU      0.08s WALL (      22 calls)

     Called by c_bands:
     init_us_2    :      0.45s CPU      0.46s WALL (     368 calls)
     crmmdiagg    :     11.13s CPU     11.37s WALL (     128 calls)
     wfcrot       :      8.35s CPU      8.63s WALL (     136 calls)

     Called by *rmmdiagg:
     h_psi        :     21.62s CPU     22.12s WALL (    1352 calls)
     s_psi        :      1.65s CPU      1.68s WALL (    1352 calls)
     g_psi        :      0.03s CPU      0.04s WALL (     684 calls)

     Called by h_psi:
     h_psi:calbec :      2.07s CPU      2.31s WALL (    1352 calls)
     vloc_psi     :     17.58s CPU     17.81s WALL (    1352 calls)
     add_vuspsi   :      1.72s CPU      1.76s WALL (    1352 calls)

     General routines
     calbec       :      2.80s CPU      3.11s WALL (    1560 calls)
     fft          :      0.31s CPU      0.36s WALL (     378 calls)
     ffts         :      0.01s CPU      0.02s WALL (      45 calls)
     fftw         :     17.30s CPU     17.51s WALL (  161282 calls)
     interpolate  :      0.03s CPU      0.03s WALL (      23 calls)
 
     Parallel routines
     fft_scatt_xy :      4.68s CPU      5.19s WALL (  213490 calls)
     fft_scatt_yz :     46.47s CPU     53.20s WALL (  213490 calls)

     RISM routines
     1DRISM_pre   :      0.00s CPU      0.00s WALL (       1 calls)
     1DRISM_run   :     50.70s CPU     63.89s WALL (       1 calls)
     3DRISM_pre   :      1.46s CPU      1.50s WALL (       1 calls)
     3DRISM_run   :    962.72s CPU    999.60s WALL (      23 calls)
     3DRISM_for   :      0.55s CPU      0.55s WALL (       1 calls)
     3DRISM_vsol  :      0.02s CPU      0.02s WALL (      23 calls)
 
     PWSCF        :  17m54.42s CPU  18m48.41s WALL

 
   This run was terminated on:  11:49:22   9Jun2024            

=------------------------------------------------------------------------------=
   JOB DONE.
=------------------------------------------------------------------------------=
