
     Program PWSCF v.7.3.1 starts on  9Jun2024 at 11:50:32 

     This program is part of the open-source Quantum ESPRESSO suite
     for quantum simulation of materials; please cite
         "P. Giannozzi et al., J. Phys.:Condens. Matter 21 395502 (2009);
         "P. Giannozzi et al., J. Phys.:Condens. Matter 29 465901 (2017);
         "P. Giannozzi et al., J. Chem. Phys. 152 154105 (2020);
          URL http://www.quantum-espresso.org", 
     in publications or presentations arising from this work. More details at
     http://www.quantum-espresso.org/quote

     Parallel version (MPI), running on    32 processors

     MPI processes distributed on     1 nodes
     148773 MiB available memory on the printing compute node when the environment starts
 
     Reading input from espresso.pwi

     Current dimensions of program PWSCF are:
     Max number of different atomic species (ntypx) = 10
     Max number of k-points (npk) =  40000
     Max angular momentum in pseudopotentials (lmaxx) =  4
     Message from routine iosys_1drism:
     default density from MOL file(H2O.tip5p.Nishihara.MOL) is used
     Found identity + ( -0.0000 -0.5000  0.0000) symmetry
     This is a supercell, fractional translations are disabled
 
     R & G space division:  proc/nbgrp/npool/nimage =      32
     Subspace diagonalization in iterative solution of the eigenvalue problem:
     a serial algorithm will be used


     Molecule # 1 for H2O read from file:
     /beegfs/hotpool/mano/rism/RISM_example/pseudo/H2O.tip5p.Nishihara.MOL
     Density:
         0.23069113E+02 cell^-1
         0.49533751E-02 bohr^-3
         0.55506881E+02 mol/L
         0.99997200E+00 g/cm^3
     Permittivity:
        78.500000
     Number of atoms:   5
     Atoms:
       #  atom      X (angs)      Y (angs)      Z (angs)      Q (e)         E (kcal/mol)  S (angs)
       1  O/h2o     0.00000000   -0.06556000    0.00000000    0.00000000    0.16000000    3.12000000
       2  H/h2o     0.75695000    0.52032000    0.00000000    0.24100000    0.04600000    1.00000000
       3  H/h2o    -0.75695000    0.52032000    0.00000000    0.24100000    0.04600000    1.00000000
       4  L/h2o     0.00000000   -0.46971000    0.57154000   -0.24100000    0.04600000    1.80000000
       5  L/h2o     0.00000000   -0.46971000   -0.57154000   -0.24100000    0.04600000    1.80000000


     Molecule # 2 for K+ read from file:
     /beegfs/hotpool/mano/rism/RISM_example/pseudo/K+.Hagiwara.MOL
     Density:
         0.41560816E+00 cell^-1
         0.89238937E-04 bohr^-3
         0.10000000E+01 mol/L
         0.39098300E-01 g/cm^3
     Number of atoms:   1
     Atoms:
       #  atom      X (angs)      Y (angs)      Z (angs)      Q (e)         E (kcal/mol)  S (angs)
       1  K         0.00000000    0.00000000    0.00000000    1.00000000    0.00032800    4.93462800


     Molecule # 3 for OH- read from file:
     /beegfs/hotpool/mano/rism/RISM_example/pseudo/OH-.oplsaa.MOL
     Density:
         0.41560816E+00 cell^-1
         0.89238937E-04 bohr^-3
         0.10000000E+01 mol/L
         0.17007340E-01 g/cm^3
     Number of atoms:   2
     Atoms:
       #  atom      X (angs)      Y (angs)      Z (angs)      Q (e)         E (kcal/mol)  S (angs)
       1  O/oh      0.00000000    0.00000000    0.00000000   -1.30000000    0.25000000    3.20000000
       2  H/oh      0.95300000    0.00000000    0.00000000    0.30000000    0.04600000    1.00000000


     1D-RISM info
     ------------
     closure equation        =           KH
     temperature             =     300.0000  kelvin
     coulomb smearing radius =       2.0000  bohr
     number of solvent sites =            8
     number of grids         =         5973
     maximum of R-space      =     999.8326  bohr
     maximum of G-space      =      18.7632  bohr^-1
     number of iterations    =        15000
     convergence threshold   =      1.0E-08
     Gaussian width of bonds =       0.3162  bohr
     size of MDIIS           =           20
     step of MDIIS           =       0.2000
     number of processes     =           32


     Correlation function is read from file


     1D-RISM Calculation

     iter. #     1  RMS(g-h-1)= 9.990E-09  nbox=  0  T=  300.00K

     End of 1D-RISM calculation


     convergence has been achieved in     1 iterations


     Chemical potential of solvation

     H2O        H2O        Closure      0.144018E+01 kcal/mol
                           GaussFluct  -0.702227E+01 kcal/mol

                K+         Closure     -0.280526E+00 kcal/mol
                           GaussFluct  -0.350066E+00 kcal/mol

                OH-        Closure     -0.749876E+00 kcal/mol
                           GaussFluct  -0.841417E+00 kcal/mol

                Total      Closure      0.409778E+00 kcal/mol
                           GaussFluct  -0.821376E+01 kcal/mol

     K+         H2O        Closure     -0.155711E+02 kcal/mol
                           GaussFluct  -0.194311E+02 kcal/mol

                K+         Closure      0.351545E+06 kcal/mol
                           GaussFluct   0.351545E+06 kcal/mol

                OH-        Closure     -0.351595E+06 kcal/mol
                           GaussFluct  -0.351595E+06 kcal/mol

                Total      Closure     -0.662661E+02 kcal/mol
                           GaussFluct  -0.701841E+02 kcal/mol

     OH-        H2O        Closure     -0.416233E+02 kcal/mol
                           GaussFluct  -0.467044E+02 kcal/mol

                K+         Closure     -0.351595E+06 kcal/mol
                           GaussFluct  -0.351595E+06 kcal/mol

                OH-        Closure      0.351544E+06 kcal/mol
                           GaussFluct   0.351544E+06 kcal/mol

                Total      Closure     -0.925525E+02 kcal/mol
                           GaussFluct  -0.977562E+02 kcal/mol

 
     Parallelization info
     --------------------
     sticks:   dense  smooth     PW     G-vecs:    dense   smooth      PW
     Min          65      32      9                14054     4956     765
     Max          66      33     10                14087     4993     792
     Sum        2083    1039    301               450233   159127   24819
 
     Using Slab Decomposition
 


     bravais-lattice index     =            0
     lattice parameter (alat)  =       9.7396  a.u.
     unit-cell volume          =    4657.2513 (a.u.)^3
     number of atoms/cell      =           12
     number of atomic types    =            1
     number of electrons       =       227.80
     number of Kohn-Sham states=          137
     kinetic-energy cutoff     =      40.0000  Ry
     charge density cutoff     =     320.0000  Ry
     scf convergence threshold =      1.0E-06
     mixing beta               =       0.1000
     number of iterations used =            8  plain     mixing
     Exchange-correlation= SLA  PW   PBE  PBE
                           (   1   4   3   4   0   0   0)

     Effective Screening Medium Method
     =================================
     Boundary Conditions: Vacuum-Slab-Vacuum
     total charge in unit cell        =   0.2000
     grid points for fit at edges     =        4 
 

     celldm(1)=   9.739563  celldm(2)=   0.000000  celldm(3)=   0.000000
     celldm(4)=   0.000000  celldm(5)=   0.000000  celldm(6)=   0.000000

     crystal axes: (cart. coord. in units of alat)
               a(1) = (   1.000000   0.000000   0.000000 )  
               a(2) = (   0.500000   0.866025   0.000000 )  
               a(3) = (   0.000000   0.000000   5.820773 )  

     reciprocal axes: (cart. coord. in units 2 pi/alat)
               b(1) = (  1.000000 -0.577350  0.000000 )  
               b(2) = (  0.000000  1.154701  0.000000 )  
               b(3) = (  0.000000  0.000000  0.171798 )  


     PseudoPot. # 1 for Cu read from file:
     /beegfs/hotpool/mano/rism/RISM_example/pseudo/cu_pbe_v1.2.uspp.F.UPF
     MD5 check sum: 6e991ff952a84172a2a52a1c1e996048
     Pseudo is Ultrasoft + core correction, Zval = 19.0
     Generated by new atomic code, or converted to UPF format
     Using radial grid of  867 points,  6 beta functions with: 
                l(1) =   0
                l(2) =   0
                l(3) =   1
                l(4) =   1
                l(5) =   2
                l(6) =   2
     Q(r) pseudized with  8 coefficients,  rinner =    1.150   1.150   1.150
                                                       1.150   1.150

     atomic species   valence    mass     pseudopotential
     Cu               19.00    63.54600     Cu( 1.00)

     No symmetry found



   Cartesian axes

     site n.     atom                  positions (alat units)
         1        Cu     tau(   1) = (   0.0000000   0.0000000  -0.4043952  )
         2        Cu     tau(   2) = (   0.5000000   0.2886751   0.0038531  )
         3        Cu     tau(   3) = (   0.2500000   0.1443376   0.4121014  )
         4        Cu     tau(   4) = (   0.2500000   0.4330127  -0.4043952  )
         5        Cu     tau(   5) = (   0.7500000   0.7216878   0.0038531  )
         6        Cu     tau(   6) = (   0.5000000   0.5773503   0.4121014  )
         7        Cu     tau(   7) = (   0.5000000   0.0000000  -0.4043952  )
         8        Cu     tau(   8) = (   1.0000000   0.2886751   0.0038531  )
         9        Cu     tau(   9) = (   0.7500000   0.1443376   0.4121014  )
        10        Cu     tau(  10) = (   0.7500000   0.4330127  -0.4043952  )
        11        Cu     tau(  11) = (   1.2500000   0.7216878   0.0038531  )
        12        Cu     tau(  12) = (   1.0000000   0.5773503   0.4121014  )

     number of k points=     8  Gaussian smearing, width (Ry)=  0.0100
                       cart. coord. in units 2pi/alat
        k(    1) = (   0.1250000   0.0721688   0.0000000), wk =   0.2500000
        k(    2) = (   0.1250000   0.3608439   0.0000000), wk =   0.2500000
        k(    3) = (   0.1250000  -0.5051815   0.0000000), wk =   0.2500000
        k(    4) = (   0.1250000  -0.2165064   0.0000000), wk =   0.2500000
        k(    5) = (   0.3750000  -0.0721688   0.0000000), wk =   0.2500000
        k(    6) = (   0.3750000   0.2165064   0.0000000), wk =   0.2500000
        k(    7) = (   0.3750000  -0.6495191   0.0000000), wk =   0.2500000
        k(    8) = (   0.3750000  -0.3608439   0.0000000), wk =   0.2500000

     Dense  grid:   450233 G-vectors     FFT dimensions: (  60,  60, 324)

     Smooth grid:   159127 G-vectors     FFT dimensions: (  40,  40, 240)

     Estimated max dynamical RAM per process >      71.06 MB

     Estimated total dynamical RAM >       2.22 GB

     Solute:
       # atom     E (kcal/mol)  S (angs)
       1  Cu      0.00500000    3.11369102    given
       2  Cu      0.00500000    3.11369102    given
       3  Cu      0.00500000    3.11369102    given
       4  Cu      0.00500000    3.11369102    given
       5  Cu      0.00500000    3.11369102    given
       6  Cu      0.00500000    3.11369102    given
       7  Cu      0.00500000    3.11369102    given
       8  Cu      0.00500000    3.11369102    given
       9  Cu      0.00500000    3.11369102    given
      10  Cu      0.00500000    3.11369102    given
      11  Cu      0.00500000    3.11369102    given
      12  Cu      0.00500000    3.11369102    given

     Wall:
       Density =    0.01000000  bohr^-3
       E       =    0.10000000  kcal/mol
       S       =    4.00000000  angs


     Laue-RISM info
     --------------
     closure equation        =           KH
     temperature             =     300.0000  kelvin
     coulomb smearing radius =       2.0000  bohr
     number of solvent sites =            6
     solvent sites           =    O/h2o   H/h2o   L/h2o       K
     solvent sites           =     O/oh    H/oh
     number of iterations    =        15000
     convergence threshold   =      1.0E-06
     convergence level       =       0.7000
     size of MDIIS           =           20
     step of MDIIS           =       0.1000
     solvent cutoff          =     160.0000  Ry
     Custom grid:   159127 G-vectors     FFT dimensions: (  40,  40, 240)

     Boundary Conditions        : Vacuum-Slab-Solvent
     unit-cell (in bohr)        : [ -28.345892  28.345892]
     expand-cell (in bohr)      : [ -28.345892  89.761991]
     solvent of right (in bohr) : [   0.000000  89.761991]
     buffer  of right (in bohr) : [  -4.015668   0.000000]
     repulsive wall (in bohr)   : [  -Infinity  -2.286274]
     reference of potential     : right-hand side
     #grids to fit at edges of unit-cell =    4
     Laue grid:     1039 Gxy-vectors     FFT dimensions: (  40,  40, 500)


     The initial density is read from file :
     ./output/opt.save/charge-density


     starting charge     227.9000, renormalised to     227.8000

     Correlation function is read from file


     negative rho (up, down):  1.607E-03 0.000E+00

     Laue-RISM Calculation

     convergence threshold    = 1.585E-05
     iter. #     1  RMS(g-h-1)= 5.197E-03  nbox=  0
     iter. #    11  RMS(g-h-1)= 9.226E-04  nbox= 10
     iter. #    21  RMS(g-h-1)= 7.042E-04  nbox= 20
     iter. #    31  RMS(g-h-1)= 6.697E-04  nbox=  3
     iter. #    41  RMS(g-h-1)= 6.591E-04  nbox= 13
     iter. #    51  RMS(g-h-1)= 6.090E-04  nbox=  7
     iter. #    61  RMS(g-h-1)= 5.636E-04  nbox= 17
     iter. #    71  RMS(g-h-1)= 5.353E-04  nbox= 11
     iter. #    81  RMS(g-h-1)= 4.889E-04  nbox=  5
     iter. #    91  RMS(g-h-1)= 4.600E-04  nbox= 15
     iter. #   101  RMS(g-h-1)= 4.384E-04  nbox=  9
     iter. #   111  RMS(g-h-1)= 4.261E-04  nbox=  3
     iter. #   121  RMS(g-h-1)= 4.217E-04  nbox= 13
     iter. #   131  RMS(g-h-1)= 4.136E-04  nbox=  7
     iter. #   141  RMS(g-h-1)= 4.016E-04  nbox= 17
     iter. #   151  RMS(g-h-1)= 3.944E-04  nbox= 11
     iter. #   161  RMS(g-h-1)= 3.838E-04  nbox=  5
     iter. #   171  RMS(g-h-1)= 3.758E-04  nbox= 15
     iter. #   181  RMS(g-h-1)= 3.547E-04  nbox=  9
     iter. #   191  RMS(g-h-1)= 3.286E-04  nbox=  3
     iter. #   201  RMS(g-h-1)= 2.990E-04  nbox= 13
     iter. #   211  RMS(g-h-1)= 2.547E-04  nbox=  7
     iter. #   221  RMS(g-h-1)= 2.206E-04  nbox= 17
     iter. #   231  RMS(g-h-1)= 1.997E-04  nbox= 11
     iter. #   241  RMS(g-h-1)= 1.880E-04  nbox=  5
     iter. #   251  RMS(g-h-1)= 1.849E-04  nbox= 15
     iter. #   261  RMS(g-h-1)= 1.822E-04  nbox=  9
     iter. #   271  RMS(g-h-1)= 1.810E-04  nbox=  3
     iter. #   281  RMS(g-h-1)= 1.795E-04  nbox= 13
     iter. #   291  RMS(g-h-1)= 1.797E-04  nbox=  7
     iter. #   301  RMS(g-h-1)= 1.734E-04  nbox= 17
     iter. #   311  RMS(g-h-1)= 1.667E-04  nbox= 11
     iter. #   321  RMS(g-h-1)= 1.641E-04  nbox=  5
     iter. #   331  RMS(g-h-1)= 1.612E-04  nbox= 15
     iter. #   341  RMS(g-h-1)= 1.575E-04  nbox=  9
     iter. #   351  RMS(g-h-1)= 1.454E-04  nbox=  3
     iter. #   361  RMS(g-h-1)= 1.338E-04  nbox= 13
     iter. #   371  RMS(g-h-1)= 1.220E-04  nbox=  7
     iter. #   381  RMS(g-h-1)= 1.100E-04  nbox= 17
     iter. #   391  RMS(g-h-1)= 1.059E-04  nbox= 11
     iter. #   401  RMS(g-h-1)= 9.851E-05  nbox=  5
     iter. #   411  RMS(g-h-1)= 9.441E-05  nbox= 15
     iter. #   421  RMS(g-h-1)= 9.171E-05  nbox=  9
     iter. #   431  RMS(g-h-1)= 8.752E-05  nbox=  3
     iter. #   441  RMS(g-h-1)= 8.573E-05  nbox= 13
     iter. #   451  RMS(g-h-1)= 8.335E-05  nbox=  7
     iter. #   461  RMS(g-h-1)= 8.131E-05  nbox= 17
     iter. #   471  RMS(g-h-1)= 7.667E-05  nbox= 11
     iter. #   481  RMS(g-h-1)= 7.235E-05  nbox=  5
     iter. #   491  RMS(g-h-1)= 6.956E-05  nbox= 15
     iter. #   501  RMS(g-h-1)= 6.741E-05  nbox=  9
     iter. #   511  RMS(g-h-1)= 6.625E-05  nbox=  3
     iter. #   521  RMS(g-h-1)= 6.489E-05  nbox= 13
     iter. #   531  RMS(g-h-1)= 6.513E-05  nbox=  7
     iter. #   541  RMS(g-h-1)= 6.389E-05  nbox= 17
     iter. #   551  RMS(g-h-1)= 6.305E-05  nbox= 11
     iter. #   561  RMS(g-h-1)= 6.197E-05  nbox=  5
     iter. #   571  RMS(g-h-1)= 5.835E-05  nbox= 15
     iter. #   581  RMS(g-h-1)= 5.664E-05  nbox=  9
     iter. #   591  RMS(g-h-1)= 5.483E-05  nbox=  3
     iter. #   601  RMS(g-h-1)= 5.211E-05  nbox= 13
     iter. #   611  RMS(g-h-1)= 4.998E-05  nbox=  7
     iter. #   621  RMS(g-h-1)= 4.892E-05  nbox= 17
     iter. #   631  RMS(g-h-1)= 4.811E-05  nbox= 11
     iter. #   641  RMS(g-h-1)= 4.735E-05  nbox=  5
     iter. #   651  RMS(g-h-1)= 4.575E-05  nbox= 15
     iter. #   661  RMS(g-h-1)= 4.461E-05  nbox=  9
     iter. #   671  RMS(g-h-1)= 4.365E-05  nbox=  3
     iter. #   681  RMS(g-h-1)= 4.264E-05  nbox= 13
     iter. #   691  RMS(g-h-1)= 4.048E-05  nbox=  7
     iter. #   701  RMS(g-h-1)= 3.732E-05  nbox= 17
     iter. #   711  RMS(g-h-1)= 3.456E-05  nbox= 11
     iter. #   721  RMS(g-h-1)= 3.239E-05  nbox=  5
     iter. #   731  RMS(g-h-1)= 2.970E-05  nbox= 15
     iter. #   741  RMS(g-h-1)= 2.760E-05  nbox=  9
     iter. #   751  RMS(g-h-1)= 2.524E-05  nbox=  3
     iter. #   761  RMS(g-h-1)= 2.283E-05  nbox= 13
     iter. #   771  RMS(g-h-1)= 1.985E-05  nbox=  7
     iter. #   781  RMS(g-h-1)= 1.794E-05  nbox= 17
     iter. #   791  RMS(g-h-1)= 1.573E-05  nbox= 11

     End of Laue-RISM calculation


     convergence has been achieved in   791 iterations


     solvent charge   -0.19777, renormalised to   -0.20000

     Total number of solvent (in expand-cell)
     H2O           33.145146
     K+             0.566437
     OH-            0.765951

     Total charge of solvent (in expand-cell)
     H2O            0.000160 e
     K+             0.566437 e
     OH-           -0.764366 e
     Total         -0.197769 e

     Chemical potential of solvation (in expand-cell)
     H2O        GaussFluct   0.445579E+00 kcal/mol
     K+         GaussFluct  -0.263294E+03 kcal/mol
     OH-        GaussFluct   0.271365E+03 kcal/mol
     Total      GaussFluct   0.851666E+01 kcal/mol

     Starting wfcs from file

     total cpu time spent up to now is      140.1 secs

     Self-consistent Calculation

     iteration #  1     ecut=    40.00 Ry     beta= 0.10
     Davidson diagonalization with overlap
     c_bands:  3 eigenvalues not converged
     c_bands:  5 eigenvalues not converged
     c_bands:  2 eigenvalues not converged
     c_bands:  3 eigenvalues not converged
     c_bands:  1 eigenvalues not converged
     c_bands:  3 eigenvalues not converged
     c_bands:  5 eigenvalues not converged
     ethr =  1.00E-05,  avg # of iterations = 44.1

     negative rho (up, down):  1.605E-03 0.000E+00

     Laue-RISM Calculation

     convergence threshold    = 1.585E-05
     iter. #     1  RMS(g-h-1)= 2.130E-02  nbox=  0
     iter. #    11  RMS(g-h-1)= 4.478E-03  nbox= 10
     iter. #    21  RMS(g-h-1)= 3.489E-03  nbox= 20
     iter. #    31  RMS(g-h-1)= 2.865E-03  nbox= 20
     iter. #    41  RMS(g-h-1)= 2.578E-03  nbox=  4
     iter. #    51  RMS(g-h-1)= 2.228E-03  nbox= 14
     iter. #    61  RMS(g-h-1)= 1.724E-03  nbox= 20
     iter. #    71  RMS(g-h-1)= 1.411E-03  nbox= 20
     iter. #    81  RMS(g-h-1)= 1.271E-03  nbox=  4
     iter. #    91  RMS(g-h-1)= 1.210E-03  nbox= 14
     iter. #   101  RMS(g-h-1)= 1.160E-03  nbox=  8
     iter. #   111  RMS(g-h-1)= 1.047E-03  nbox=  2
     iter. #   121  RMS(g-h-1)= 9.007E-04  nbox= 12
     iter. #   131  RMS(g-h-1)= 7.939E-04  nbox=  6
     iter. #   141  RMS(g-h-1)= 7.073E-04  nbox= 16
     iter. #   151  RMS(g-h-1)= 6.336E-04  nbox= 10
     iter. #   161  RMS(g-h-1)= 5.863E-04  nbox=  4
     iter. #   171  RMS(g-h-1)= 5.136E-04  nbox= 14
     iter. #   181  RMS(g-h-1)= 4.824E-04  nbox=  8
     iter. #   191  RMS(g-h-1)= 4.571E-04  nbox=  2
     iter. #   201  RMS(g-h-1)= 4.294E-04  nbox= 12
     iter. #   211  RMS(g-h-1)= 4.195E-04  nbox=  6
     iter. #   221  RMS(g-h-1)= 4.087E-04  nbox= 16
     iter. #   231  RMS(g-h-1)= 4.036E-04  nbox= 10
     iter. #   241  RMS(g-h-1)= 3.968E-04  nbox=  4
     iter. #   251  RMS(g-h-1)= 3.873E-04  nbox= 14
     iter. #   261  RMS(g-h-1)= 3.748E-04  nbox=  8
     iter. #   271  RMS(g-h-1)= 3.809E-04  nbox=  2
     iter. #   281  RMS(g-h-1)= 3.567E-04  nbox= 12
     iter. #   291  RMS(g-h-1)= 3.585E-04  nbox=  6
     iter. #   301  RMS(g-h-1)= 3.366E-04  nbox= 16
     iter. #   311  RMS(g-h-1)= 3.224E-04  nbox= 10
     iter. #   321  RMS(g-h-1)= 3.101E-04  nbox=  4
     iter. #   331  RMS(g-h-1)= 3.043E-04  nbox= 14
     iter. #   341  RMS(g-h-1)= 2.944E-04  nbox=  8
     iter. #   351  RMS(g-h-1)= 2.863E-04  nbox=  2
     iter. #   361  RMS(g-h-1)= 2.759E-04  nbox= 12
     iter. #   371  RMS(g-h-1)= 2.670E-04  nbox=  6
     iter. #   381  RMS(g-h-1)= 2.605E-04  nbox= 16
     iter. #   391  RMS(g-h-1)= 2.448E-04  nbox= 10
     iter. #   401  RMS(g-h-1)= 2.276E-04  nbox=  4
     iter. #   411  RMS(g-h-1)= 2.180E-04  nbox= 14
     iter. #   421  RMS(g-h-1)= 2.061E-04  nbox=  8
     iter. #   431  RMS(g-h-1)= 1.947E-04  nbox=  2
     iter. #   441  RMS(g-h-1)= 1.825E-04  nbox= 12
     iter. #   451  RMS(g-h-1)= 1.724E-04  nbox=  6
     iter. #   461  RMS(g-h-1)= 1.561E-04  nbox= 16
     iter. #   471  RMS(g-h-1)= 1.479E-04  nbox= 10
     iter. #   481  RMS(g-h-1)= 1.421E-04  nbox=  4
     iter. #   491  RMS(g-h-1)= 1.354E-04  nbox= 14
     iter. #   501  RMS(g-h-1)= 1.304E-04  nbox=  8
     iter. #   511  RMS(g-h-1)= 1.257E-04  nbox=  2
     iter. #   521  RMS(g-h-1)= 1.258E-04  nbox= 12
     iter. #   531  RMS(g-h-1)= 1.250E-04  nbox=  6
     iter. #   541  RMS(g-h-1)= 1.232E-04  nbox= 16
     iter. #   551  RMS(g-h-1)= 1.191E-04  nbox= 10
     iter. #   561  RMS(g-h-1)= 1.069E-04  nbox=  4
     iter. #   571  RMS(g-h-1)= 9.769E-05  nbox= 14
     iter. #   581  RMS(g-h-1)= 9.314E-05  nbox=  8
     iter. #   591  RMS(g-h-1)= 9.334E-05  nbox=  2
     iter. #   601  RMS(g-h-1)= 9.074E-05  nbox= 12
     iter. #   611  RMS(g-h-1)= 8.583E-05  nbox=  6
     iter. #   621  RMS(g-h-1)= 8.401E-05  nbox= 16
     iter. #   631  RMS(g-h-1)= 7.970E-05  nbox= 10
     iter. #   641  RMS(g-h-1)= 7.348E-05  nbox=  4
     iter. #   651  RMS(g-h-1)= 6.879E-05  nbox= 14
     iter. #   661  RMS(g-h-1)= 6.016E-05  nbox=  8
     iter. #   671  RMS(g-h-1)= 5.627E-05  nbox=  2
     iter. #   681  RMS(g-h-1)= 5.456E-05  nbox= 12
     iter. #   691  RMS(g-h-1)= 5.313E-05  nbox=  6
     iter. #   701  RMS(g-h-1)= 5.231E-05  nbox= 16
     iter. #   711  RMS(g-h-1)= 5.155E-05  nbox= 10
     iter. #   721  RMS(g-h-1)= 5.059E-05  nbox=  4
     iter. #   731  RMS(g-h-1)= 4.892E-05  nbox= 14
     iter. #   741  RMS(g-h-1)= 4.594E-05  nbox=  8
     iter. #   751  RMS(g-h-1)= 4.349E-05  nbox=  2
     iter. #   761  RMS(g-h-1)= 4.073E-05  nbox= 12
     iter. #   771  RMS(g-h-1)= 3.795E-05  nbox=  6
     iter. #   781  RMS(g-h-1)= 3.405E-05  nbox= 16
     iter. #   791  RMS(g-h-1)= 3.105E-05  nbox= 10
     iter. #   801  RMS(g-h-1)= 2.716E-05  nbox=  4
     iter. #   811  RMS(g-h-1)= 2.345E-05  nbox= 14
     iter. #   821  RMS(g-h-1)= 2.158E-05  nbox=  8
     iter. #   831  RMS(g-h-1)= 1.932E-05  nbox=  2
     iter. #   841  RMS(g-h-1)= 1.790E-05  nbox= 12
     iter. #   851  RMS(g-h-1)= 1.646E-05  nbox=  6
     iter. #   855  RMS(g-h-1)= 1.577E-05  nbox= 10

     End of Laue-RISM calculation


     convergence has been achieved in   855 iterations


     solvent charge   -0.20109, renormalised to   -0.20000

     Total number of solvent (in expand-cell)
     H2O           33.136693
     K+             0.566686
     OH-            0.766366

     Total charge of solvent (in expand-cell)
     H2O           -0.000022 e
     K+             0.566686 e
     OH-           -0.767752 e
     Total         -0.201088 e

     Chemical potential of solvation (in expand-cell)
     H2O        GaussFluct   0.563189E+00 kcal/mol
     K+         GaussFluct  -0.219062E+03 kcal/mol
     OH-        GaussFluct   0.219765E+03 kcal/mol
     Total      GaussFluct   0.126576E+01 kcal/mol


     total cpu time spent up to now is      201.3 secs

     total energy              =   -4844.51698813 Ry
     estimated scf accuracy    <       2.67434803 Ry

     iteration #  2     ecut=    40.00 Ry     beta= 0.10
     Davidson diagonalization with overlap
     ethr =  1.17E-03,  avg # of iterations =  5.0

     negative rho (up, down):  1.591E-03 0.000E+00

     Laue-RISM Calculation

     convergence threshold    = 1.585E-05
     iter. #     1  RMS(g-h-1)= 1.607E-02  nbox=  0
     iter. #    11  RMS(g-h-1)= 3.834E-03  nbox= 10
     iter. #    21  RMS(g-h-1)= 2.636E-03  nbox= 20
     iter. #    31  RMS(g-h-1)= 2.066E-03  nbox= 20
     iter. #    41  RMS(g-h-1)= 1.814E-03  nbox= 20
     iter. #    51  RMS(g-h-1)= 1.578E-03  nbox= 20
     iter. #    61  RMS(g-h-1)= 1.523E-03  nbox= 20
     iter. #    71  RMS(g-h-1)= 1.256E-03  nbox= 11
     iter. #    81  RMS(g-h-1)= 9.330E-04  nbox= 20
     iter. #    91  RMS(g-h-1)= 8.086E-04  nbox= 20
     iter. #   101  RMS(g-h-1)= 7.766E-04  nbox=  6
     iter. #   111  RMS(g-h-1)= 7.514E-04  nbox= 16
     iter. #   121  RMS(g-h-1)= 7.012E-04  nbox= 10
     iter. #   131  RMS(g-h-1)= 6.487E-04  nbox=  4
     iter. #   141  RMS(g-h-1)= 5.327E-04  nbox= 14
     iter. #   151  RMS(g-h-1)= 4.689E-04  nbox=  8
     iter. #   161  RMS(g-h-1)= 4.150E-04  nbox=  2
     iter. #   171  RMS(g-h-1)= 3.717E-04  nbox= 12
     iter. #   181  RMS(g-h-1)= 3.250E-04  nbox=  6
     iter. #   191  RMS(g-h-1)= 2.925E-04  nbox= 16
     iter. #   201  RMS(g-h-1)= 2.856E-04  nbox= 10
     iter. #   211  RMS(g-h-1)= 2.761E-04  nbox=  4
     iter. #   221  RMS(g-h-1)= 2.704E-04  nbox= 14
     iter. #   231  RMS(g-h-1)= 2.631E-04  nbox=  8
     iter. #   241  RMS(g-h-1)= 2.534E-04  nbox=  2
     iter. #   251  RMS(g-h-1)= 2.449E-04  nbox= 12
     iter. #   261  RMS(g-h-1)= 2.343E-04  nbox=  6
     iter. #   271  RMS(g-h-1)= 2.305E-04  nbox= 16
     iter. #   281  RMS(g-h-1)= 2.286E-04  nbox= 10
     iter. #   291  RMS(g-h-1)= 2.258E-04  nbox=  4
     iter. #   301  RMS(g-h-1)= 2.233E-04  nbox= 14
     iter. #   311  RMS(g-h-1)= 2.222E-04  nbox=  8
     iter. #   321  RMS(g-h-1)= 2.202E-04  nbox=  2
     iter. #   331  RMS(g-h-1)= 2.138E-04  nbox= 12
     iter. #   341  RMS(g-h-1)= 2.049E-04  nbox=  6
     iter. #   351  RMS(g-h-1)= 1.905E-04  nbox= 16
     iter. #   361  RMS(g-h-1)= 1.725E-04  nbox= 10
     iter. #   371  RMS(g-h-1)= 1.594E-04  nbox=  4
     iter. #   381  RMS(g-h-1)= 1.489E-04  nbox= 14
     iter. #   391  RMS(g-h-1)= 1.423E-04  nbox=  8
     iter. #   401  RMS(g-h-1)= 1.369E-04  nbox=  2
     iter. #   411  RMS(g-h-1)= 1.319E-04  nbox= 12
     iter. #   421  RMS(g-h-1)= 1.278E-04  nbox=  6
     iter. #   431  RMS(g-h-1)= 1.251E-04  nbox= 16
     iter. #   441  RMS(g-h-1)= 1.226E-04  nbox= 10
     iter. #   451  RMS(g-h-1)= 1.229E-04  nbox=  4
     iter. #   461  RMS(g-h-1)= 1.177E-04  nbox= 14
     iter. #   471  RMS(g-h-1)= 1.158E-04  nbox=  8
     iter. #   481  RMS(g-h-1)= 1.108E-04  nbox=  2
     iter. #   491  RMS(g-h-1)= 1.021E-04  nbox= 12
     iter. #   501  RMS(g-h-1)= 9.642E-05  nbox=  6
     iter. #   511  RMS(g-h-1)= 8.972E-05  nbox= 16
     iter. #   521  RMS(g-h-1)= 8.231E-05  nbox= 10
     iter. #   531  RMS(g-h-1)= 7.448E-05  nbox=  4
     iter. #   541  RMS(g-h-1)= 7.162E-05  nbox= 14
     iter. #   551  RMS(g-h-1)= 6.895E-05  nbox=  8
     iter. #   561  RMS(g-h-1)= 6.722E-05  nbox=  2
     iter. #   571  RMS(g-h-1)= 6.550E-05  nbox= 12
     iter. #   581  RMS(g-h-1)= 6.528E-05  nbox=  6
     iter. #   591  RMS(g-h-1)= 6.373E-05  nbox= 16
     iter. #   601  RMS(g-h-1)= 6.291E-05  nbox= 10
     iter. #   611  RMS(g-h-1)= 6.214E-05  nbox=  4
     iter. #   621  RMS(g-h-1)= 5.909E-05  nbox= 14
     iter. #   631  RMS(g-h-1)= 5.641E-05  nbox=  8
     iter. #   641  RMS(g-h-1)= 5.347E-05  nbox=  2
     iter. #   651  RMS(g-h-1)= 5.139E-05  nbox= 12
     iter. #   661  RMS(g-h-1)= 5.000E-05  nbox=  6
     iter. #   671  RMS(g-h-1)= 4.865E-05  nbox= 16
     iter. #   681  RMS(g-h-1)= 4.824E-05  nbox= 10
     iter. #   691  RMS(g-h-1)= 4.725E-05  nbox=  4
     iter. #   701  RMS(g-h-1)= 4.612E-05  nbox= 14
     iter. #   711  RMS(g-h-1)= 4.447E-05  nbox=  8
     iter. #   721  RMS(g-h-1)= 4.100E-05  nbox=  2
     iter. #   731  RMS(g-h-1)= 3.744E-05  nbox= 12
     iter. #   741  RMS(g-h-1)= 3.373E-05  nbox=  6
     iter. #   751  RMS(g-h-1)= 3.030E-05  nbox= 16
     iter. #   761  RMS(g-h-1)= 2.740E-05  nbox= 10
     iter. #   771  RMS(g-h-1)= 2.535E-05  nbox=  4
     iter. #   781  RMS(g-h-1)= 2.395E-05  nbox= 14
     iter. #   791  RMS(g-h-1)= 2.301E-05  nbox=  8
     iter. #   801  RMS(g-h-1)= 2.225E-05  nbox=  2
     iter. #   811  RMS(g-h-1)= 2.150E-05  nbox= 12
     iter. #   821  RMS(g-h-1)= 2.107E-05  nbox=  6
     iter. #   831  RMS(g-h-1)= 2.060E-05  nbox= 16
     iter. #   841  RMS(g-h-1)= 2.018E-05  nbox= 10
     iter. #   851  RMS(g-h-1)= 2.018E-05  nbox=  4
     iter. #   861  RMS(g-h-1)= 1.947E-05  nbox= 14
     iter. #   871  RMS(g-h-1)= 1.943E-05  nbox=  8
     iter. #   881  RMS(g-h-1)= 1.915E-05  nbox=  2
     iter. #   891  RMS(g-h-1)= 1.884E-05  nbox= 12
     iter. #   901  RMS(g-h-1)= 1.852E-05  nbox=  6
     iter. #   911  RMS(g-h-1)= 1.788E-05  nbox= 16
     iter. #   921  RMS(g-h-1)= 1.735E-05  nbox= 10
     iter. #   931  RMS(g-h-1)= 1.636E-05  nbox=  4
     iter. #   935  RMS(g-h-1)= 1.574E-05  nbox=  8

     End of Laue-RISM calculation


     convergence has been achieved in   935 iterations


     solvent charge   -0.19861, renormalised to   -0.20000

     Total number of solvent (in expand-cell)
     H2O           33.140248
     K+             0.566406
     OH-            0.766077

     Total charge of solvent (in expand-cell)
     H2O           -0.000009 e
     K+             0.566406 e
     OH-           -0.765012 e
     Total         -0.198615 e

     Chemical potential of solvation (in expand-cell)
     H2O        GaussFluct   0.515470E+00 kcal/mol
     K+         GaussFluct  -0.246451E+03 kcal/mol
     OH-        GaussFluct   0.251939E+03 kcal/mol
     Total      GaussFluct   0.600315E+01 kcal/mol


     total cpu time spent up to now is      255.8 secs

     total energy              =   -4844.61645574 Ry
     estimated scf accuracy    <       9.78832345 Ry

     iteration #  3     ecut=    40.00 Ry     beta= 0.10
     RMM-DIIS diagonalization
     ethr =  1.17E-03,  avg # of iterations =  2.5

     negative rho (up, down):  1.594E-03 0.000E+00

     Laue-RISM Calculation

     convergence threshold    = 7.185E-06
     iter. #     1  RMS(g-h-1)= 1.832E-03  nbox=  0
     iter. #    11  RMS(g-h-1)= 4.143E-04  nbox= 10
     iter. #    21  RMS(g-h-1)= 1.569E-04  nbox= 20
     iter. #    31  RMS(g-h-1)= 1.136E-04  nbox= 20
     iter. #    41  RMS(g-h-1)= 9.544E-05  nbox= 20
     iter. #    51  RMS(g-h-1)= 7.423E-05  nbox= 20
     iter. #    61  RMS(g-h-1)= 6.648E-05  nbox= 20
     iter. #    71  RMS(g-h-1)= 6.112E-05  nbox=  6
     iter. #    81  RMS(g-h-1)= 4.623E-05  nbox= 16
     iter. #    91  RMS(g-h-1)= 3.425E-05  nbox= 20
     iter. #   101  RMS(g-h-1)= 3.005E-05  nbox= 20
     iter. #   111  RMS(g-h-1)= 2.595E-05  nbox=  9
     iter. #   121  RMS(g-h-1)= 2.081E-05  nbox=  3
     iter. #   131  RMS(g-h-1)= 1.783E-05  nbox= 13
     iter. #   141  RMS(g-h-1)= 1.649E-05  nbox=  7
     iter. #   151  RMS(g-h-1)= 1.526E-05  nbox= 17
     iter. #   161  RMS(g-h-1)= 1.382E-05  nbox= 11
     iter. #   171  RMS(g-h-1)= 1.223E-05  nbox=  5
     iter. #   181  RMS(g-h-1)= 1.143E-05  nbox= 15
     iter. #   191  RMS(g-h-1)= 1.033E-05  nbox=  9
     iter. #   201  RMS(g-h-1)= 9.573E-06  nbox=  3
     iter. #   211  RMS(g-h-1)= 8.725E-06  nbox= 13
     iter. #   221  RMS(g-h-1)= 8.281E-06  nbox=  7
     iter. #   231  RMS(g-h-1)= 8.012E-06  nbox= 17
     iter. #   241  RMS(g-h-1)= 7.818E-06  nbox= 11
     iter. #   251  RMS(g-h-1)= 7.374E-06  nbox=  5
     iter. #   255  RMS(g-h-1)= 7.151E-06  nbox=  9

     End of Laue-RISM calculation


     convergence has been achieved in   255 iterations


     solvent charge   -0.19905, renormalised to   -0.20000

     Total number of solvent (in expand-cell)
     H2O           33.139636
     K+             0.566772
     OH-            0.766606

     Total charge of solvent (in expand-cell)
     H2O            0.000057 e
     K+             0.566772 e
     OH-           -0.765879 e
     Total         -0.199050 e

     Chemical potential of solvation (in expand-cell)
     H2O        GaussFluct   0.554570E+00 kcal/mol
     K+         GaussFluct  -0.246208E+03 kcal/mol
     OH-        GaussFluct   0.251478E+03 kcal/mol
     Total      GaussFluct   0.582406E+01 kcal/mol


     total cpu time spent up to now is      271.9 secs

     total energy              =   -4845.01216504 Ry
     estimated scf accuracy    <       0.04586688 Ry

     iteration #  4     ecut=    40.00 Ry     beta= 0.10
     RMM-DIIS diagonalization
     ethr =  2.01E-05,  avg # of iterations =  2.8

     negative rho (up, down):  1.604E-03 0.000E+00

     Laue-RISM Calculation

     convergence threshold    = 3.918E-06
     iter. #     1  RMS(g-h-1)= 4.777E-03  nbox=  0
     iter. #    11  RMS(g-h-1)= 8.324E-04  nbox= 10
     iter. #    21  RMS(g-h-1)= 3.965E-04  nbox= 20
     iter. #    31  RMS(g-h-1)= 2.590E-04  nbox= 20
     iter. #    41  RMS(g-h-1)= 2.187E-04  nbox= 20
     iter. #    51  RMS(g-h-1)= 1.922E-04  nbox= 20
     iter. #    61  RMS(g-h-1)= 1.747E-04  nbox= 20
     iter. #    71  RMS(g-h-1)= 1.605E-04  nbox=  5
     iter. #    81  RMS(g-h-1)= 1.320E-04  nbox= 15
     iter. #    91  RMS(g-h-1)= 1.085E-04  nbox=  9
     iter. #   101  RMS(g-h-1)= 9.085E-05  nbox=  3
     iter. #   111  RMS(g-h-1)= 7.437E-05  nbox= 13
     iter. #   121  RMS(g-h-1)= 6.860E-05  nbox=  7
     iter. #   131  RMS(g-h-1)= 6.301E-05  nbox= 17
     iter. #   141  RMS(g-h-1)= 5.878E-05  nbox= 11
     iter. #   151  RMS(g-h-1)= 5.338E-05  nbox=  5
     iter. #   161  RMS(g-h-1)= 4.537E-05  nbox= 15
     iter. #   171  RMS(g-h-1)= 4.090E-05  nbox=  9
     iter. #   181  RMS(g-h-1)= 3.758E-05  nbox=  3
     iter. #   191  RMS(g-h-1)= 3.601E-05  nbox= 13
     iter. #   201  RMS(g-h-1)= 3.441E-05  nbox=  7
     iter. #   211  RMS(g-h-1)= 3.251E-05  nbox= 17
     iter. #   221  RMS(g-h-1)= 3.113E-05  nbox= 11
     iter. #   231  RMS(g-h-1)= 2.960E-05  nbox=  5
     iter. #   241  RMS(g-h-1)= 2.667E-05  nbox= 15
     iter. #   251  RMS(g-h-1)= 2.452E-05  nbox=  9
     iter. #   261  RMS(g-h-1)= 2.265E-05  nbox=  3
     iter. #   271  RMS(g-h-1)= 2.112E-05  nbox= 13
     iter. #   281  RMS(g-h-1)= 1.944E-05  nbox=  7
     iter. #   291  RMS(g-h-1)= 1.841E-05  nbox= 17
     iter. #   301  RMS(g-h-1)= 1.760E-05  nbox= 11
     iter. #   311  RMS(g-h-1)= 1.694E-05  nbox=  5
     iter. #   321  RMS(g-h-1)= 1.560E-05  nbox= 15
     iter. #   331  RMS(g-h-1)= 1.468E-05  nbox=  9
     iter. #   341  RMS(g-h-1)= 1.415E-05  nbox=  3
     iter. #   351  RMS(g-h-1)= 1.375E-05  nbox= 13
     iter. #   361  RMS(g-h-1)= 1.356E-05  nbox=  7
     iter. #   371  RMS(g-h-1)= 1.324E-05  nbox= 17
     iter. #   381  RMS(g-h-1)= 1.278E-05  nbox= 11
     iter. #   391  RMS(g-h-1)= 1.226E-05  nbox=  5
     iter. #   401  RMS(g-h-1)= 1.190E-05  nbox= 15
     iter. #   411  RMS(g-h-1)= 1.157E-05  nbox=  9
     iter. #   421  RMS(g-h-1)= 1.105E-05  nbox=  3
     iter. #   431  RMS(g-h-1)= 1.001E-05  nbox= 13
     iter. #   441  RMS(g-h-1)= 9.327E-06  nbox=  7
     iter. #   451  RMS(g-h-1)= 8.831E-06  nbox= 17
     iter. #   461  RMS(g-h-1)= 8.220E-06  nbox= 11
     iter. #   471  RMS(g-h-1)= 7.659E-06  nbox=  5
     iter. #   481  RMS(g-h-1)= 7.326E-06  nbox= 15
     iter. #   491  RMS(g-h-1)= 6.927E-06  nbox=  9
     iter. #   501  RMS(g-h-1)= 6.522E-06  nbox=  3
     iter. #   511  RMS(g-h-1)= 6.141E-06  nbox= 13
     iter. #   521  RMS(g-h-1)= 5.858E-06  nbox=  7
     iter. #   531  RMS(g-h-1)= 5.499E-06  nbox= 17
     iter. #   541  RMS(g-h-1)= 5.178E-06  nbox= 11
     iter. #   551  RMS(g-h-1)= 4.964E-06  nbox=  5
     iter. #   561  RMS(g-h-1)= 4.780E-06  nbox= 15
     iter. #   571  RMS(g-h-1)= 4.651E-06  nbox=  9
     iter. #   581  RMS(g-h-1)= 4.541E-06  nbox=  3
     iter. #   591  RMS(g-h-1)= 4.423E-06  nbox= 13
     iter. #   601  RMS(g-h-1)= 4.267E-06  nbox=  7
     iter. #   611  RMS(g-h-1)= 3.954E-06  nbox= 17
     iter. #   614  RMS(g-h-1)= 3.866E-06  nbox=  4

     End of Laue-RISM calculation


     convergence has been achieved in   614 iterations


     solvent charge   -0.20032, renormalised to   -0.20000

     Total number of solvent (in expand-cell)
     H2O           33.131330
     K+             0.567084
     OH-            0.767083

     Total charge of solvent (in expand-cell)
     H2O           -0.000019 e
     K+             0.567084 e
     OH-           -0.767385 e
     Total         -0.200320 e

     Chemical potential of solvation (in expand-cell)
     H2O        GaussFluct   0.662935E+00 kcal/mol
     K+         GaussFluct  -0.244849E+03 kcal/mol
     OH-        GaussFluct   0.249800E+03 kcal/mol
     Total      GaussFluct   0.561353E+01 kcal/mol


     total cpu time spent up to now is      307.9 secs

     total energy              =   -4845.00888909 Ry
     estimated scf accuracy    <       0.01940279 Ry

     iteration #  5     ecut=    40.00 Ry     beta= 0.10
     Davidson diagonalization with overlap
     c_bands:  1 eigenvalues not converged
     c_bands:  3 eigenvalues not converged
     c_bands:  5 eigenvalues not converged
     c_bands:  2 eigenvalues not converged
     c_bands:  3 eigenvalues not converged
     c_bands:  4 eigenvalues not converged
     c_bands:  5 eigenvalues not converged
     ethr =  8.52E-06,  avg # of iterations = 20.0

     negative rho (up, down):  1.606E-03 0.000E+00

     Laue-RISM Calculation

     convergence threshold    = 1.000E-06
     iter. #     1  RMS(g-h-1)= 6.747E-04  nbox=  0
     iter. #    11  RMS(g-h-1)= 1.064E-04  nbox= 10
     iter. #    21  RMS(g-h-1)= 5.386E-05  nbox= 20
     iter. #    31  RMS(g-h-1)= 3.843E-05  nbox= 20
     iter. #    41  RMS(g-h-1)= 3.594E-05  nbox=  2
     iter. #    51  RMS(g-h-1)= 3.138E-05  nbox= 12
     iter. #    61  RMS(g-h-1)= 2.372E-05  nbox= 20
     iter. #    71  RMS(g-h-1)= 2.063E-05  nbox=  2
     iter. #    81  RMS(g-h-1)= 1.872E-05  nbox= 12
     iter. #    91  RMS(g-h-1)= 1.796E-05  nbox=  6
     iter. #   101  RMS(g-h-1)= 1.733E-05  nbox= 16
     iter. #   111  RMS(g-h-1)= 1.650E-05  nbox= 10
     iter. #   121  RMS(g-h-1)= 1.559E-05  nbox=  4
     iter. #   131  RMS(g-h-1)= 1.386E-05  nbox= 14
     iter. #   141  RMS(g-h-1)= 1.291E-05  nbox=  8
     iter. #   151  RMS(g-h-1)= 1.229E-05  nbox=  2
     iter. #   161  RMS(g-h-1)= 1.188E-05  nbox= 12
     iter. #   171  RMS(g-h-1)= 1.134E-05  nbox=  6
     iter. #   181  RMS(g-h-1)= 1.056E-05  nbox= 16
     iter. #   191  RMS(g-h-1)= 9.966E-06  nbox= 10
     iter. #   201  RMS(g-h-1)= 9.380E-06  nbox=  4
     iter. #   211  RMS(g-h-1)= 8.751E-06  nbox= 14
     iter. #   221  RMS(g-h-1)= 8.045E-06  nbox=  8
     iter. #   231  RMS(g-h-1)= 7.546E-06  nbox=  2
     iter. #   241  RMS(g-h-1)= 7.105E-06  nbox= 12
     iter. #   251  RMS(g-h-1)= 6.965E-06  nbox=  6
     iter. #   261  RMS(g-h-1)= 6.776E-06  nbox= 16
     iter. #   271  RMS(g-h-1)= 6.571E-06  nbox= 10
     iter. #   281  RMS(g-h-1)= 6.393E-06  nbox=  4
     iter. #   291  RMS(g-h-1)= 5.970E-06  nbox= 14
     iter. #   301  RMS(g-h-1)= 5.638E-06  nbox=  8
     iter. #   311  RMS(g-h-1)= 5.425E-06  nbox=  2
     iter. #   321  RMS(g-h-1)= 5.283E-06  nbox= 12
     iter. #   331  RMS(g-h-1)= 5.198E-06  nbox=  6
     iter. #   341  RMS(g-h-1)= 4.993E-06  nbox= 16
     iter. #   351  RMS(g-h-1)= 4.889E-06  nbox= 10
     iter. #   361  RMS(g-h-1)= 4.759E-06  nbox=  4
     iter. #   371  RMS(g-h-1)= 4.587E-06  nbox= 14
     iter. #   381  RMS(g-h-1)= 4.151E-06  nbox=  8
     iter. #   391  RMS(g-h-1)= 3.777E-06  nbox=  2
     iter. #   401  RMS(g-h-1)= 3.547E-06  nbox= 12
     iter. #   411  RMS(g-h-1)= 3.435E-06  nbox=  6
     iter. #   421  RMS(g-h-1)= 3.296E-06  nbox= 16
     iter. #   431  RMS(g-h-1)= 3.141E-06  nbox= 10
     iter. #   441  RMS(g-h-1)= 2.897E-06  nbox=  4
     iter. #   451  RMS(g-h-1)= 2.718E-06  nbox= 14
     iter. #   461  RMS(g-h-1)= 2.460E-06  nbox=  8
     iter. #   471  RMS(g-h-1)= 2.293E-06  nbox=  2
     iter. #   481  RMS(g-h-1)= 2.113E-06  nbox= 12
     iter. #   491  RMS(g-h-1)= 1.900E-06  nbox=  6
     iter. #   501  RMS(g-h-1)= 1.661E-06  nbox= 16
     iter. #   511  RMS(g-h-1)= 1.441E-06  nbox= 10
     iter. #   521  RMS(g-h-1)= 1.294E-06  nbox=  4
     iter. #   531  RMS(g-h-1)= 1.229E-06  nbox= 14
     iter. #   541  RMS(g-h-1)= 1.156E-06  nbox=  8
     iter. #   551  RMS(g-h-1)= 1.097E-06  nbox=  2
     iter. #   561  RMS(g-h-1)= 1.032E-06  nbox= 12
     iter. #   566  RMS(g-h-1)= 9.969E-07  nbox= 17

     End of Laue-RISM calculation


     convergence has been achieved in   566 iterations


     solvent charge   -0.20013, renormalised to   -0.20000

     Total number of solvent (in expand-cell)
     H2O           33.128778
     K+             0.567124
     OH-            0.767157

     Total charge of solvent (in expand-cell)
     H2O           -0.000011 e
     K+             0.567124 e
     OH-           -0.767242 e
     Total         -0.200129 e

     Chemical potential of solvation (in expand-cell)
     H2O        GaussFluct   0.692489E+00 kcal/mol
     K+         GaussFluct  -0.244573E+03 kcal/mol
     OH-        GaussFluct   0.249517E+03 kcal/mol
     Total      GaussFluct   0.563608E+01 kcal/mol


     total cpu time spent up to now is      345.7 secs

     total energy              =   -4845.01212826 Ry
     estimated scf accuracy    <       0.00183683 Ry

     iteration #  6     ecut=    40.00 Ry     beta= 0.10
     RMM-DIIS diagonalization
     ethr =  8.06E-07,  avg # of iterations =  3.6

     negative rho (up, down):  1.605E-03 0.000E+00

     Laue-RISM Calculation

     convergence threshold    = 1.000E-06
     iter. #     1  RMS(g-h-1)= 1.794E-03  nbox=  0
     iter. #    11  RMS(g-h-1)= 2.909E-04  nbox= 10
     iter. #    21  RMS(g-h-1)= 1.274E-04  nbox= 20
     iter. #    31  RMS(g-h-1)= 8.544E-05  nbox= 20
     iter. #    41  RMS(g-h-1)= 7.470E-05  nbox= 20
     iter. #    51  RMS(g-h-1)= 6.374E-05  nbox= 20
     iter. #    61  RMS(g-h-1)= 5.482E-05  nbox= 20
     iter. #    71  RMS(g-h-1)= 5.057E-05  nbox=  8
     iter. #    81  RMS(g-h-1)= 3.977E-05  nbox=  2
     iter. #    91  RMS(g-h-1)= 3.238E-05  nbox= 12
     iter. #   101  RMS(g-h-1)= 2.819E-05  nbox=  6
     iter. #   111  RMS(g-h-1)= 2.588E-05  nbox= 16
     iter. #   121  RMS(g-h-1)= 2.421E-05  nbox= 10
     iter. #   131  RMS(g-h-1)= 2.221E-05  nbox=  4
     iter. #   141  RMS(g-h-1)= 1.972E-05  nbox= 14
     iter. #   151  RMS(g-h-1)= 1.787E-05  nbox=  8
     iter. #   161  RMS(g-h-1)= 1.611E-05  nbox=  2
     iter. #   171  RMS(g-h-1)= 1.486E-05  nbox= 12
     iter. #   181  RMS(g-h-1)= 1.427E-05  nbox=  6
     iter. #   191  RMS(g-h-1)= 1.375E-05  nbox= 16
     iter. #   201  RMS(g-h-1)= 1.312E-05  nbox= 10
     iter. #   211  RMS(g-h-1)= 1.221E-05  nbox=  4
     iter. #   221  RMS(g-h-1)= 1.098E-05  nbox= 14
     iter. #   231  RMS(g-h-1)= 9.886E-06  nbox=  8
     iter. #   241  RMS(g-h-1)= 9.047E-06  nbox=  2
     iter. #   251  RMS(g-h-1)= 8.395E-06  nbox= 12
     iter. #   261  RMS(g-h-1)= 8.053E-06  nbox=  6
     iter. #   271  RMS(g-h-1)= 7.628E-06  nbox= 16
     iter. #   281  RMS(g-h-1)= 7.417E-06  nbox= 10
     iter. #   291  RMS(g-h-1)= 7.224E-06  nbox=  4
     iter. #   301  RMS(g-h-1)= 7.034E-06  nbox= 14
     iter. #   311  RMS(g-h-1)= 6.804E-06  nbox=  8
     iter. #   321  RMS(g-h-1)= 6.519E-06  nbox=  2
     iter. #   331  RMS(g-h-1)= 6.195E-06  nbox= 12
     iter. #   341  RMS(g-h-1)= 5.982E-06  nbox=  6
     iter. #   351  RMS(g-h-1)= 5.692E-06  nbox= 16
     iter. #   361  RMS(g-h-1)= 5.429E-06  nbox= 10
     iter. #   371  RMS(g-h-1)= 5.159E-06  nbox=  4
     iter. #   381  RMS(g-h-1)= 4.932E-06  nbox= 14
     iter. #   391  RMS(g-h-1)= 4.713E-06  nbox=  8
     iter. #   401  RMS(g-h-1)= 4.540E-06  nbox=  2
     iter. #   411  RMS(g-h-1)= 4.309E-06  nbox= 12
     iter. #   421  RMS(g-h-1)= 4.023E-06  nbox=  6
     iter. #   431  RMS(g-h-1)= 3.678E-06  nbox= 16
     iter. #   441  RMS(g-h-1)= 3.412E-06  nbox= 10
     iter. #   451  RMS(g-h-1)= 3.141E-06  nbox=  4
     iter. #   461  RMS(g-h-1)= 3.006E-06  nbox= 14
     iter. #   471  RMS(g-h-1)= 2.854E-06  nbox=  8
     iter. #   481  RMS(g-h-1)= 2.767E-06  nbox=  2
     iter. #   491  RMS(g-h-1)= 2.674E-06  nbox= 12
     iter. #   501  RMS(g-h-1)= 2.544E-06  nbox=  6
     iter. #   511  RMS(g-h-1)= 2.293E-06  nbox= 16
     iter. #   521  RMS(g-h-1)= 1.958E-06  nbox= 10
     iter. #   531  RMS(g-h-1)= 1.564E-06  nbox=  4
     iter. #   541  RMS(g-h-1)= 1.265E-06  nbox= 14
     iter. #   551  RMS(g-h-1)= 1.039E-06  nbox=  8
     iter. #   555  RMS(g-h-1)= 9.832E-07  nbox= 12

     End of Laue-RISM calculation


     convergence has been achieved in   555 iterations


     solvent charge   -0.19998, renormalised to   -0.20000

     Total number of solvent (in expand-cell)
     H2O           33.130245
     K+             0.567016
     OH-            0.766998

     Total charge of solvent (in expand-cell)
     H2O            0.000000 e
     K+             0.567016 e
     OH-           -0.767000 e
     Total         -0.199983 e

     Chemical potential of solvation (in expand-cell)
     H2O        GaussFluct   0.673114E+00 kcal/mol
     K+         GaussFluct  -0.245123E+03 kcal/mol
     OH-        GaussFluct   0.250186E+03 kcal/mol
     Total      GaussFluct   0.573625E+01 kcal/mol


     total cpu time spent up to now is      378.8 secs

     total energy              =   -4845.01187433 Ry
     estimated scf accuracy    <       0.00196468 Ry

     iteration #  7     ecut=    40.00 Ry     beta= 0.10
     RMM-DIIS diagonalization
     ethr =  8.06E-07,  avg # of iterations =  3.3

     negative rho (up, down):  1.612E-03 0.000E+00

     Laue-RISM Calculation

     convergence threshold    = 1.000E-06
     iter. #     1  RMS(g-h-1)= 1.550E-03  nbox=  0
     iter. #    11  RMS(g-h-1)= 2.748E-04  nbox= 10
     iter. #    21  RMS(g-h-1)= 1.253E-04  nbox= 20
     iter. #    31  RMS(g-h-1)= 8.579E-05  nbox= 20
     iter. #    41  RMS(g-h-1)= 7.215E-05  nbox= 20
     iter. #    51  RMS(g-h-1)= 6.299E-05  nbox= 20
     iter. #    61  RMS(g-h-1)= 5.573E-05  nbox=  5
     iter. #    71  RMS(g-h-1)= 4.135E-05  nbox= 15
     iter. #    81  RMS(g-h-1)= 3.195E-05  nbox= 20
     iter. #    91  RMS(g-h-1)= 2.825E-05  nbox=  5
     iter. #   101  RMS(g-h-1)= 2.430E-05  nbox= 15
     iter. #   111  RMS(g-h-1)= 2.164E-05  nbox=  9
     iter. #   121  RMS(g-h-1)= 1.948E-05  nbox=  3
     iter. #   131  RMS(g-h-1)= 1.750E-05  nbox= 13
     iter. #   141  RMS(g-h-1)= 1.594E-05  nbox=  7
     iter. #   151  RMS(g-h-1)= 1.498E-05  nbox= 17
     iter. #   161  RMS(g-h-1)= 1.406E-05  nbox= 11
     iter. #   171  RMS(g-h-1)= 1.313E-05  nbox=  5
     iter. #   181  RMS(g-h-1)= 1.184E-05  nbox= 15
     iter. #   191  RMS(g-h-1)= 1.065E-05  nbox=  9
     iter. #   201  RMS(g-h-1)= 1.019E-05  nbox=  3
     iter. #   211  RMS(g-h-1)= 9.710E-06  nbox= 13
     iter. #   221  RMS(g-h-1)= 9.156E-06  nbox=  7
     iter. #   231  RMS(g-h-1)= 8.709E-06  nbox= 17
     iter. #   241  RMS(g-h-1)= 8.431E-06  nbox= 11
     iter. #   251  RMS(g-h-1)= 7.984E-06  nbox=  5
     iter. #   261  RMS(g-h-1)= 7.371E-06  nbox= 15
     iter. #   271  RMS(g-h-1)= 6.488E-06  nbox=  9
     iter. #   281  RMS(g-h-1)= 6.030E-06  nbox=  3
     iter. #   291  RMS(g-h-1)= 5.412E-06  nbox= 13
     iter. #   301  RMS(g-h-1)= 5.147E-06  nbox=  7
     iter. #   311  RMS(g-h-1)= 4.933E-06  nbox= 17
     iter. #   321  RMS(g-h-1)= 4.811E-06  nbox= 11
     iter. #   331  RMS(g-h-1)= 4.631E-06  nbox=  5
     iter. #   341  RMS(g-h-1)= 4.437E-06  nbox= 15
     iter. #   351  RMS(g-h-1)= 4.241E-06  nbox=  9
     iter. #   361  RMS(g-h-1)= 4.064E-06  nbox=  3
     iter. #   371  RMS(g-h-1)= 3.783E-06  nbox= 13
     iter. #   381  RMS(g-h-1)= 3.579E-06  nbox=  7
     iter. #   391  RMS(g-h-1)= 3.395E-06  nbox= 17
     iter. #   401  RMS(g-h-1)= 3.185E-06  nbox= 11
     iter. #   411  RMS(g-h-1)= 2.898E-06  nbox=  5
     iter. #   421  RMS(g-h-1)= 2.495E-06  nbox= 15
     iter. #   431  RMS(g-h-1)= 2.107E-06  nbox=  9
     iter. #   441  RMS(g-h-1)= 1.710E-06  nbox=  3
     iter. #   451  RMS(g-h-1)= 1.425E-06  nbox= 13
     iter. #   461  RMS(g-h-1)= 1.223E-06  nbox=  7
     iter. #   471  RMS(g-h-1)= 1.048E-06  nbox= 17
     iter. #   475  RMS(g-h-1)= 9.980E-07  nbox=  5

     End of Laue-RISM calculation


     convergence has been achieved in   475 iterations


     solvent charge   -0.19999, renormalised to   -0.20000

     Total number of solvent (in expand-cell)
     H2O           33.125146
     K+             0.567243
     OH-            0.767204

     Total charge of solvent (in expand-cell)
     H2O           -0.000001 e
     K+             0.567243 e
     OH-           -0.767231 e
     Total         -0.199988 e

     Chemical potential of solvation (in expand-cell)
     H2O        GaussFluct   0.744617E+00 kcal/mol
     K+         GaussFluct  -0.244729E+03 kcal/mol
     OH-        GaussFluct   0.249694E+03 kcal/mol
     Total      GaussFluct   0.570978E+01 kcal/mol


     total cpu time spent up to now is      407.6 secs

     total energy              =   -4845.01236741 Ry
     estimated scf accuracy    <       0.00184207 Ry

     iteration #  8     ecut=    40.00 Ry     beta= 0.10
     RMM-DIIS diagonalization
     ethr =  8.06E-07,  avg # of iterations =  2.6

     negative rho (up, down):  1.624E-03 0.000E+00

     Laue-RISM Calculation

     convergence threshold    = 1.000E-06
     iter. #     1  RMS(g-h-1)= 1.834E-03  nbox=  0
     iter. #    11  RMS(g-h-1)= 2.762E-04  nbox= 10
     iter. #    21  RMS(g-h-1)= 1.374E-04  nbox= 20
     iter. #    31  RMS(g-h-1)= 9.302E-05  nbox= 20
     iter. #    41  RMS(g-h-1)= 8.010E-05  nbox=  3
     iter. #    51  RMS(g-h-1)= 6.360E-05  nbox= 13
     iter. #    61  RMS(g-h-1)= 5.062E-05  nbox=  7
     iter. #    71  RMS(g-h-1)= 3.830E-05  nbox= 17
     iter. #    81  RMS(g-h-1)= 3.118E-05  nbox= 20
     iter. #    91  RMS(g-h-1)= 2.973E-05  nbox=  2
     iter. #   101  RMS(g-h-1)= 2.796E-05  nbox= 12
     iter. #   111  RMS(g-h-1)= 2.648E-05  nbox=  6
     iter. #   121  RMS(g-h-1)= 2.375E-05  nbox= 16
     iter. #   131  RMS(g-h-1)= 1.985E-05  nbox= 10
     iter. #   141  RMS(g-h-1)= 1.710E-05  nbox=  4
     iter. #   151  RMS(g-h-1)= 1.587E-05  nbox= 14
     iter. #   161  RMS(g-h-1)= 1.485E-05  nbox=  8
     iter. #   171  RMS(g-h-1)= 1.450E-05  nbox=  2
     iter. #   181  RMS(g-h-1)= 1.398E-05  nbox= 12
     iter. #   191  RMS(g-h-1)= 1.358E-05  nbox=  6
     iter. #   201  RMS(g-h-1)= 1.246E-05  nbox= 16
     iter. #   211  RMS(g-h-1)= 1.173E-05  nbox= 10
     iter. #   221  RMS(g-h-1)= 1.117E-05  nbox=  4
     iter. #   231  RMS(g-h-1)= 1.066E-05  nbox= 14
     iter. #   241  RMS(g-h-1)= 1.001E-05  nbox=  8
     iter. #   251  RMS(g-h-1)= 9.605E-06  nbox=  2
     iter. #   261  RMS(g-h-1)= 9.097E-06  nbox= 12
     iter. #   271  RMS(g-h-1)= 8.657E-06  nbox=  6
     iter. #   281  RMS(g-h-1)= 8.098E-06  nbox= 16
     iter. #   291  RMS(g-h-1)= 7.826E-06  nbox= 10
     iter. #   301  RMS(g-h-1)= 7.421E-06  nbox=  4
     iter. #   311  RMS(g-h-1)= 6.950E-06  nbox= 14
     iter. #   321  RMS(g-h-1)= 6.415E-06  nbox=  8
     iter. #   331  RMS(g-h-1)= 6.249E-06  nbox=  2
     iter. #   341  RMS(g-h-1)= 6.065E-06  nbox= 12
     iter. #   351  RMS(g-h-1)= 5.897E-06  nbox=  6
     iter. #   361  RMS(g-h-1)= 5.606E-06  nbox= 16
     iter. #   371  RMS(g-h-1)= 5.359E-06  nbox= 10
     iter. #   381  RMS(g-h-1)= 5.099E-06  nbox=  4
     iter. #   391  RMS(g-h-1)= 4.855E-06  nbox= 14
     iter. #   401  RMS(g-h-1)= 4.437E-06  nbox=  8
     iter. #   411  RMS(g-h-1)= 4.232E-06  nbox=  2
     iter. #   421  RMS(g-h-1)= 4.061E-06  nbox= 12
     iter. #   431  RMS(g-h-1)= 3.936E-06  nbox=  6
     iter. #   441  RMS(g-h-1)= 3.781E-06  nbox= 16
     iter. #   451  RMS(g-h-1)= 3.540E-06  nbox= 10
     iter. #   461  RMS(g-h-1)= 3.152E-06  nbox=  4
     iter. #   471  RMS(g-h-1)= 2.773E-06  nbox= 14
     iter. #   481  RMS(g-h-1)= 2.445E-06  nbox=  8
     iter. #   491  RMS(g-h-1)= 2.231E-06  nbox=  2
     iter. #   501  RMS(g-h-1)= 2.051E-06  nbox= 12
     iter. #   511  RMS(g-h-1)= 1.970E-06  nbox=  6
     iter. #   521  RMS(g-h-1)= 1.900E-06  nbox= 16
     iter. #   531  RMS(g-h-1)= 1.850E-06  nbox= 10
     iter. #   541  RMS(g-h-1)= 1.824E-06  nbox=  4
     iter. #   551  RMS(g-h-1)= 1.816E-06  nbox= 14
     iter. #   561  RMS(g-h-1)= 1.806E-06  nbox=  8
     iter. #   571  RMS(g-h-1)= 1.795E-06  nbox=  2
     iter. #   581  RMS(g-h-1)= 1.762E-06  nbox= 12
     iter. #   591  RMS(g-h-1)= 1.676E-06  nbox=  6
     iter. #   601  RMS(g-h-1)= 1.578E-06  nbox= 16
     iter. #   611  RMS(g-h-1)= 1.528E-06  nbox= 10
     iter. #   621  RMS(g-h-1)= 1.484E-06  nbox=  4
     iter. #   631  RMS(g-h-1)= 1.465E-06  nbox= 14
     iter. #   641  RMS(g-h-1)= 1.442E-06  nbox=  8
     iter. #   651  RMS(g-h-1)= 1.413E-06  nbox=  2
     iter. #   661  RMS(g-h-1)= 1.383E-06  nbox= 12
     iter. #   671  RMS(g-h-1)= 1.368E-06  nbox=  6
     iter. #   681  RMS(g-h-1)= 1.344E-06  nbox= 16
     iter. #   691  RMS(g-h-1)= 1.296E-06  nbox=  8
     iter. #   701  RMS(g-h-1)= 6.595E-06  nbox=  2
     iter. #   711  RMS(g-h-1)= 1.253E-06  nbox= 12
     iter. #   721  RMS(g-h-1)= 1.247E-06  nbox=  4
     iter. #   731  RMS(g-h-1)= 1.242E-06  nbox= 14
     iter. #   741  RMS(g-h-1)= 1.239E-06  nbox=  8
     iter. #   751  RMS(g-h-1)= 1.239E-06  nbox=  2
     iter. #   761  RMS(g-h-1)= 1.236E-06  nbox= 12
     iter. #   771  RMS(g-h-1)= 1.235E-06  nbox=  6
     iter. #   781  RMS(g-h-1)= 1.233E-06  nbox= 16
     iter. #   791  RMS(g-h-1)= 1.229E-06  nbox= 10
     iter. #   801  RMS(g-h-1)= 1.218E-06  nbox=  4
     iter. #   811  RMS(g-h-1)= 1.216E-06  nbox= 14
     iter. #   821  RMS(g-h-1)= 1.212E-06  nbox=  8
     iter. #   831  RMS(g-h-1)= 1.212E-06  nbox=  2
     iter. #   841  RMS(g-h-1)= 1.211E-06  nbox= 12
     iter. #   851  RMS(g-h-1)= 1.210E-06  nbox=  6
     iter. #   861  RMS(g-h-1)= 1.208E-06  nbox= 16
     iter. #   871  RMS(g-h-1)= 1.207E-06  nbox= 10
     iter. #   881  RMS(g-h-1)= 1.206E-06  nbox=  4
     iter. #   891  RMS(g-h-1)= 1.206E-06  nbox= 14
     iter. #   901  RMS(g-h-1)= 1.205E-06  nbox=  8
     iter. #   911  RMS(g-h-1)= 1.204E-06  nbox=  2
     iter. #   921  RMS(g-h-1)= 1.202E-06  nbox= 12
     iter. #   931  RMS(g-h-1)= 1.200E-06  nbox=  6
     iter. #   941  RMS(g-h-1)= 1.187E-06  nbox= 16
     iter. #   951  RMS(g-h-1)= 1.158E-06  nbox= 10
     iter. #   961  RMS(g-h-1)= 1.119E-06  nbox=  4
     iter. #   971  RMS(g-h-1)= 1.052E-06  nbox= 14
     iter. #   981  RMS(g-h-1)= 9.997E-07  nbox=  8

     End of Laue-RISM calculation


     convergence has been achieved in   981 iterations


     solvent charge   -0.20009, renormalised to   -0.20000

     Total number of solvent (in expand-cell)
     H2O           33.117812
     K+             0.567553
     OH-            0.767570

     Total charge of solvent (in expand-cell)
     H2O           -0.000003 e
     K+             0.567553 e
     OH-           -0.767638 e
     Total         -0.200088 e

     Chemical potential of solvation (in expand-cell)
     H2O        GaussFluct   0.832208E+00 kcal/mol
     K+         GaussFluct  -0.244209E+03 kcal/mol
     OH-        GaussFluct   0.249079E+03 kcal/mol
     Total      GaussFluct   0.570255E+01 kcal/mol


     total cpu time spent up to now is      463.9 secs

     total energy              =   -4845.01244670 Ry
     estimated scf accuracy    <       0.00016766 Ry

     iteration #  9     ecut=    40.00 Ry     beta= 0.10
     RMM-DIIS diagonalization
     ethr =  7.36E-08,  avg # of iterations =  3.5

     negative rho (up, down):  1.621E-03 0.000E+00

     Laue-RISM Calculation

     convergence threshold    = 1.000E-06
     iter. #     1  RMS(g-h-1)= 3.677E-04  nbox=  0
     iter. #    11  RMS(g-h-1)= 5.788E-05  nbox= 10
     iter. #    21  RMS(g-h-1)= 2.621E-05  nbox= 20
     iter. #    31  RMS(g-h-1)= 1.937E-05  nbox= 20
     iter. #    41  RMS(g-h-1)= 1.593E-05  nbox= 20
     iter. #    51  RMS(g-h-1)= 1.376E-05  nbox= 20
     iter. #    61  RMS(g-h-1)= 1.233E-05  nbox= 20
     iter. #    71  RMS(g-h-1)= 1.159E-05  nbox= 20
     iter. #    81  RMS(g-h-1)= 1.021E-05  nbox=  7
     iter. #    91  RMS(g-h-1)= 7.822E-06  nbox= 17
     iter. #   101  RMS(g-h-1)= 5.944E-06  nbox=  4
     iter. #   111  RMS(g-h-1)= 4.323E-06  nbox= 14
     iter. #   121  RMS(g-h-1)= 3.584E-06  nbox= 20
     iter. #   131  RMS(g-h-1)= 3.317E-06  nbox=  4
     iter. #   141  RMS(g-h-1)= 2.957E-06  nbox= 14
     iter. #   151  RMS(g-h-1)= 2.415E-06  nbox=  8
     iter. #   161  RMS(g-h-1)= 1.968E-06  nbox=  2
     iter. #   171  RMS(g-h-1)= 1.680E-06  nbox= 12
     iter. #   181  RMS(g-h-1)= 1.515E-06  nbox=  6
     iter. #   191  RMS(g-h-1)= 1.382E-06  nbox= 16
     iter. #   201  RMS(g-h-1)= 1.253E-06  nbox= 10
     iter. #   211  RMS(g-h-1)= 1.197E-06  nbox=  4
     iter. #   221  RMS(g-h-1)= 1.154E-06  nbox= 14
     iter. #   231  RMS(g-h-1)= 1.118E-06  nbox=  8
     iter. #   241  RMS(g-h-1)= 1.086E-06  nbox=  2
     iter. #   251  RMS(g-h-1)= 1.074E-06  nbox= 12
     iter. #   261  RMS(g-h-1)= 1.068E-06  nbox=  6
     iter. #   271  RMS(g-h-1)= 1.056E-06  nbox= 16
     iter. #   281  RMS(g-h-1)= 1.048E-06  nbox= 10
     iter. #   291  RMS(g-h-1)= 1.044E-06  nbox=  4
     iter. #   301  RMS(g-h-1)= 1.030E-06  nbox= 14
     iter. #   308  RMS(g-h-1)= 9.991E-07  nbox=  5

     End of Laue-RISM calculation


     convergence has been achieved in   308 iterations


     solvent charge   -0.19993, renormalised to   -0.20000

     Total number of solvent (in expand-cell)
     H2O           33.118916
     K+             0.567473
     OH-            0.767417

     Total charge of solvent (in expand-cell)
     H2O            0.000008 e
     K+             0.567473 e
     OH-           -0.767410 e
     Total         -0.199929 e

     Chemical potential of solvation (in expand-cell)
     H2O        GaussFluct   0.816979E+00 kcal/mol
     K+         GaussFluct  -0.244159E+03 kcal/mol
     OH-        GaussFluct   0.249032E+03 kcal/mol
     Total      GaussFluct   0.568943E+01 kcal/mol


     total cpu time spent up to now is      483.7 secs

     total energy              =   -4845.01236286 Ry
     estimated scf accuracy    <       0.00014402 Ry

     iteration # 10     ecut=    40.00 Ry     beta= 0.10
     Davidson diagonalization with overlap
     c_bands:  1 eigenvalues not converged
     c_bands:  3 eigenvalues not converged
     c_bands:  1 eigenvalues not converged
     c_bands:  3 eigenvalues not converged
     c_bands:  2 eigenvalues not converged
     ethr =  6.32E-08,  avg # of iterations = 13.6

     negative rho (up, down):  1.625E-03 0.000E+00

     Laue-RISM Calculation

     convergence threshold    = 1.000E-06
     iter. #     1  RMS(g-h-1)= 4.446E-04  nbox=  0
     iter. #    11  RMS(g-h-1)= 5.968E-05  nbox= 10
     iter. #    21  RMS(g-h-1)= 2.613E-05  nbox= 20
     iter. #    31  RMS(g-h-1)= 1.626E-05  nbox= 20
     iter. #    41  RMS(g-h-1)= 1.331E-05  nbox= 20
     iter. #    51  RMS(g-h-1)= 1.072E-05  nbox= 20
     iter. #    61  RMS(g-h-1)= 1.015E-05  nbox= 20
     iter. #    71  RMS(g-h-1)= 8.528E-06  nbox=  8
     iter. #    81  RMS(g-h-1)= 5.301E-06  nbox= 18
     iter. #    91  RMS(g-h-1)= 3.934E-06  nbox= 20
     iter. #   101  RMS(g-h-1)= 3.738E-06  nbox=  3
     iter. #   111  RMS(g-h-1)= 3.228E-06  nbox= 13
     iter. #   121  RMS(g-h-1)= 2.532E-06  nbox= 20
     iter. #   131  RMS(g-h-1)= 2.016E-06  nbox=  2
     iter. #   141  RMS(g-h-1)= 1.668E-06  nbox= 12
     iter. #   151  RMS(g-h-1)= 1.536E-06  nbox=  6
     iter. #   161  RMS(g-h-1)= 1.430E-06  nbox= 16
     iter. #   171  RMS(g-h-1)= 1.354E-06  nbox= 10
     iter. #   181  RMS(g-h-1)= 1.279E-06  nbox=  4
     iter. #   191  RMS(g-h-1)= 1.187E-06  nbox= 14
     iter. #   201  RMS(g-h-1)= 1.042E-06  nbox=  8
     iter. #   205  RMS(g-h-1)= 9.930E-07  nbox= 12

     End of Laue-RISM calculation


     convergence has been achieved in   205 iterations


     solvent charge   -0.19990, renormalised to   -0.20000

     Total number of solvent (in expand-cell)
     H2O           33.117171
     K+             0.567565
     OH-            0.767494

     Total charge of solvent (in expand-cell)
     H2O            0.000019 e
     K+             0.567565 e
     OH-           -0.767487 e
     Total         -0.199902 e

     Chemical potential of solvation (in expand-cell)
     H2O        GaussFluct   0.839438E+00 kcal/mol
     K+         GaussFluct  -0.244147E+03 kcal/mol
     OH-        GaussFluct   0.249016E+03 kcal/mol
     Total      GaussFluct   0.570776E+01 kcal/mol


     total cpu time spent up to now is      500.1 secs

     total energy              =   -4845.01231782 Ry
     estimated scf accuracy    <       0.00008823 Ry

     iteration # 11     ecut=    40.00 Ry     beta= 0.10
     RMM-DIIS diagonalization
     ethr =  3.87E-08,  avg # of iterations =  3.0

     negative rho (up, down):  1.624E-03 0.000E+00

     Laue-RISM Calculation

     convergence threshold    = 1.000E-06
     iter. #     1  RMS(g-h-1)= 1.153E-04  nbox=  0
     iter. #    11  RMS(g-h-1)= 1.472E-05  nbox= 10
     iter. #    21  RMS(g-h-1)= 5.765E-06  nbox= 20
     iter. #    31  RMS(g-h-1)= 4.164E-06  nbox= 20
     iter. #    41  RMS(g-h-1)= 3.747E-06  nbox=  4
     iter. #    51  RMS(g-h-1)= 2.934E-06  nbox= 14
     iter. #    61  RMS(g-h-1)= 2.393E-06  nbox= 20
     iter. #    71  RMS(g-h-1)= 1.922E-06  nbox=  7
     iter. #    81  RMS(g-h-1)= 1.667E-06  nbox= 17
     iter. #    91  RMS(g-h-1)= 1.482E-06  nbox= 11
     iter. #   101  RMS(g-h-1)= 1.354E-06  nbox=  5
     iter. #   111  RMS(g-h-1)= 1.285E-06  nbox= 15
     iter. #   121  RMS(g-h-1)= 1.257E-06  nbox=  9
     iter. #   131  RMS(g-h-1)= 1.227E-06  nbox=  3
     iter. #   141  RMS(g-h-1)= 1.187E-06  nbox= 13
     iter. #   151  RMS(g-h-1)= 1.168E-06  nbox=  7
     iter. #   161  RMS(g-h-1)= 1.164E-06  nbox=  4
     iter. #   171  RMS(g-h-1)= 1.140E-06  nbox= 14
     iter. #   181  RMS(g-h-1)= 1.122E-06  nbox=  6
     iter. #   191  RMS(g-h-1)= 1.161E-06  nbox= 16
     iter. #   201  RMS(g-h-1)= 1.109E-06  nbox= 10
     iter. #   211  RMS(g-h-1)= 1.105E-06  nbox=  4
     iter. #   221  RMS(g-h-1)= 1.104E-06  nbox= 14
     iter. #   231  RMS(g-h-1)= 1.101E-06  nbox=  8
     iter. #   241  RMS(g-h-1)= 1.096E-06  nbox=  2
     iter. #   251  RMS(g-h-1)= 1.058E-06  nbox= 12
     iter. #   261  RMS(g-h-1)= 1.009E-06  nbox=  6
     iter. #   263  RMS(g-h-1)= 9.947E-07  nbox=  8

     End of Laue-RISM calculation


     convergence has been achieved in   263 iterations


     solvent charge   -0.19992, renormalised to   -0.20000

     Total number of solvent (in expand-cell)
     H2O           33.117590
     K+             0.567533
     OH-            0.767490

     Total charge of solvent (in expand-cell)
     H2O            0.000003 e
     K+             0.567533 e
     OH-           -0.767458 e
     Total         -0.199922 e

     Chemical potential of solvation (in expand-cell)
     H2O        GaussFluct   0.832291E+00 kcal/mol
     K+         GaussFluct  -0.244191E+03 kcal/mol
     OH-        GaussFluct   0.249073E+03 kcal/mol
     Total      GaussFluct   0.571417E+01 kcal/mol


     total cpu time spent up to now is      516.9 secs

     total energy              =   -4845.01232594 Ry
     estimated scf accuracy    <       0.00001778 Ry

     iteration # 12     ecut=    40.00 Ry     beta= 0.10
     RMM-DIIS diagonalization
     ethr =  7.81E-09,  avg # of iterations =  2.8

     negative rho (up, down):  1.626E-03 0.000E+00

     Laue-RISM Calculation

     convergence threshold    = 1.000E-06
     iter. #     1  RMS(g-h-1)= 2.887E-04  nbox=  0
     iter. #    11  RMS(g-h-1)= 4.266E-05  nbox= 10
     iter. #    21  RMS(g-h-1)= 1.534E-05  nbox= 20
     iter. #    31  RMS(g-h-1)= 1.100E-05  nbox= 20
     iter. #    41  RMS(g-h-1)= 8.591E-06  nbox= 20
     iter. #    51  RMS(g-h-1)= 7.041E-06  nbox= 20
     iter. #    61  RMS(g-h-1)= 6.783E-06  nbox= 20
     iter. #    71  RMS(g-h-1)= 5.215E-06  nbox= 11
     iter. #    81  RMS(g-h-1)= 3.828E-06  nbox=  5
     iter. #    91  RMS(g-h-1)= 3.049E-06  nbox= 15
     iter. #   101  RMS(g-h-1)= 2.583E-06  nbox=  9
     iter. #   111  RMS(g-h-1)= 2.381E-06  nbox=  3
     iter. #   121  RMS(g-h-1)= 2.263E-06  nbox= 13
     iter. #   131  RMS(g-h-1)= 2.188E-06  nbox=  7
     iter. #   141  RMS(g-h-1)= 2.097E-06  nbox= 17
     iter. #   151  RMS(g-h-1)= 2.037E-06  nbox= 11
     iter. #   161  RMS(g-h-1)= 1.946E-06  nbox=  5
     iter. #   171  RMS(g-h-1)= 1.867E-06  nbox= 15
     iter. #   181  RMS(g-h-1)= 1.752E-06  nbox=  9
     iter. #   191  RMS(g-h-1)= 1.631E-06  nbox=  3
     iter. #   201  RMS(g-h-1)= 1.575E-06  nbox= 13
     iter. #   211  RMS(g-h-1)= 1.550E-06  nbox=  7
     iter. #   221  RMS(g-h-1)= 1.526E-06  nbox= 17
     iter. #   231  RMS(g-h-1)= 1.518E-06  nbox= 11
     iter. #   241  RMS(g-h-1)= 1.515E-06  nbox=  5
     iter. #   251  RMS(g-h-1)= 1.494E-06  nbox= 15
     iter. #   261  RMS(g-h-1)= 1.460E-06  nbox=  9
     iter. #   271  RMS(g-h-1)= 1.441E-06  nbox=  3
     iter. #   281  RMS(g-h-1)= 1.412E-06  nbox= 13
     iter. #   291  RMS(g-h-1)= 1.384E-06  nbox=  7
     iter. #   301  RMS(g-h-1)= 1.376E-06  nbox= 17
     iter. #   311  RMS(g-h-1)= 1.350E-06  nbox= 11
     iter. #   321  RMS(g-h-1)= 1.292E-06  nbox=  5
     iter. #   331  RMS(g-h-1)= 1.247E-06  nbox= 15
     iter. #   341  RMS(g-h-1)= 1.182E-06  nbox=  9
     iter. #   351  RMS(g-h-1)= 1.123E-06  nbox=  3
     iter. #   361  RMS(g-h-1)= 1.077E-06  nbox= 13
     iter. #   371  RMS(g-h-1)= 1.055E-06  nbox=  7
     iter. #   381  RMS(g-h-1)= 1.041E-06  nbox= 17
     iter. #   391  RMS(g-h-1)= 1.029E-06  nbox= 11
     iter. #   401  RMS(g-h-1)= 1.015E-06  nbox=  5
     iter. #   411  RMS(g-h-1)= 1.002E-06  nbox= 15
     iter. #   412  RMS(g-h-1)= 9.999E-07  nbox= 16

     End of Laue-RISM calculation


     convergence has been achieved in   412 iterations


     solvent charge   -0.19993, renormalised to   -0.20000

     Total number of solvent (in expand-cell)
     H2O           33.116726
     K+             0.567597
     OH-            0.767591

     Total charge of solvent (in expand-cell)
     H2O           -0.000001 e
     K+             0.567597 e
     OH-           -0.767526 e
     Total         -0.199930 e

     Chemical potential of solvation (in expand-cell)
     H2O        GaussFluct   0.845175E+00 kcal/mol
     K+         GaussFluct  -0.244226E+03 kcal/mol
     OH-        GaussFluct   0.249106E+03 kcal/mol
     Total      GaussFluct   0.572513E+01 kcal/mol


     total cpu time spent up to now is      541.9 secs

     total energy              =   -4845.01235555 Ry
     estimated scf accuracy    <       0.00000462 Ry

     iteration # 13     ecut=    40.00 Ry     beta= 0.10
     RMM-DIIS diagonalization
     ethr =  2.03E-09,  avg # of iterations =  3.8

     negative rho (up, down):  1.626E-03 0.000E+00

     Laue-RISM Calculation

     convergence threshold    = 1.000E-06
     iter. #     1  RMS(g-h-1)= 1.303E-04  nbox=  0
     iter. #    11  RMS(g-h-1)= 7.188E-06  nbox= 10
     iter. #    21  RMS(g-h-1)= 3.573E-06  nbox= 20
     iter. #    31  RMS(g-h-1)= 2.443E-06  nbox= 20
     iter. #    41  RMS(g-h-1)= 2.182E-06  nbox= 20
     iter. #    51  RMS(g-h-1)= 2.083E-06  nbox= 11
     iter. #    61  RMS(g-h-1)= 1.920E-06  nbox=  5
     iter. #    71  RMS(g-h-1)= 1.825E-06  nbox= 15
     iter. #    81  RMS(g-h-1)= 1.733E-06  nbox=  9
     iter. #    91  RMS(g-h-1)= 1.726E-06  nbox=  3
     iter. #   101  RMS(g-h-1)= 1.683E-06  nbox= 13
     iter. #   111  RMS(g-h-1)= 1.654E-06  nbox=  7
     iter. #   121  RMS(g-h-1)= 1.630E-06  nbox= 17
     iter. #   131  RMS(g-h-1)= 1.609E-06  nbox= 11
     iter. #   141  RMS(g-h-1)= 1.483E-06  nbox=  5
     iter. #   151  RMS(g-h-1)= 1.373E-06  nbox= 15
     iter. #   161  RMS(g-h-1)= 1.141E-06  nbox=  9
     iter. #   169  RMS(g-h-1)= 9.776E-07  nbox= 17

     End of Laue-RISM calculation


     convergence has been achieved in   169 iterations


     solvent charge   -0.20006, renormalised to   -0.20000

     Total number of solvent (in expand-cell)
     H2O           33.116740
     K+             0.567612
     OH-            0.767683

     Total charge of solvent (in expand-cell)
     H2O           -0.000009 e
     K+             0.567612 e
     OH-           -0.767660 e
     Total         -0.200057 e

     Chemical potential of solvation (in expand-cell)
     H2O        GaussFluct   0.845388E+00 kcal/mol
     K+         GaussFluct  -0.244160E+03 kcal/mol
     OH-        GaussFluct   0.249016E+03 kcal/mol
     Total      GaussFluct   0.570168E+01 kcal/mol


     total cpu time spent up to now is      553.8 secs

     total energy              =   -4845.01248914 Ry
     estimated scf accuracy    <       0.00004714 Ry

     iteration # 14     ecut=    40.00 Ry     beta= 0.10
     RMM-DIIS diagonalization
     ethr =  2.03E-09,  avg # of iterations =  3.6

     negative rho (up, down):  1.626E-03 0.000E+00

     Laue-RISM Calculation

     convergence threshold    = 1.000E-06
     iter. #     1  RMS(g-h-1)= 7.139E-05  nbox=  0
     iter. #    11  RMS(g-h-1)= 1.186E-05  nbox= 10
     iter. #    21  RMS(g-h-1)= 4.399E-06  nbox= 20
     iter. #    31  RMS(g-h-1)= 3.057E-06  nbox= 20
     iter. #    41  RMS(g-h-1)= 2.517E-06  nbox= 20
     iter. #    51  RMS(g-h-1)= 2.208E-06  nbox= 20
     iter. #    61  RMS(g-h-1)= 2.098E-06  nbox= 20
     iter. #    71  RMS(g-h-1)= 1.787E-06  nbox=  9
     iter. #    81  RMS(g-h-1)= 1.458E-06  nbox=  3
     iter. #    91  RMS(g-h-1)= 1.146E-06  nbox= 13
     iter. #   101  RMS(g-h-1)= 1.073E-06  nbox=  7
     iter. #   111  RMS(g-h-1)= 1.067E-06  nbox= 17
     iter. #   121  RMS(g-h-1)= 1.050E-06  nbox= 11
     iter. #   131  RMS(g-h-1)= 1.036E-06  nbox=  5
     iter. #   141  RMS(g-h-1)= 1.034E-06  nbox= 15
     iter. #   151  RMS(g-h-1)= 1.026E-06  nbox=  9
     iter. #   161  RMS(g-h-1)= 1.009E-06  nbox=  3
     iter. #   163  RMS(g-h-1)= 9.945E-07  nbox=  5

     End of Laue-RISM calculation


     convergence has been achieved in   163 iterations


     solvent charge   -0.20011, renormalised to   -0.20000

     Total number of solvent (in expand-cell)
     H2O           33.116976
     K+             0.567619
     OH-            0.767682

     Total charge of solvent (in expand-cell)
     H2O           -0.000007 e
     K+             0.567619 e
     OH-           -0.767717 e
     Total         -0.200106 e

     Chemical potential of solvation (in expand-cell)
     H2O        GaussFluct   0.842716E+00 kcal/mol
     K+         GaussFluct  -0.244161E+03 kcal/mol
     OH-        GaussFluct   0.249016E+03 kcal/mol
     Total      GaussFluct   0.569807E+01 kcal/mol


     total cpu time spent up to now is      565.3 secs

     total energy              =   -4845.01252730 Ry
     estimated scf accuracy    <       0.00000441 Ry

     iteration # 15     ecut=    40.00 Ry     beta= 0.10
     Davidson diagonalization with overlap
     c_bands:  1 eigenvalues not converged
     c_bands:  2 eigenvalues not converged
     ethr =  1.94E-09,  avg # of iterations =  7.0

     negative rho (up, down):  1.626E-03 0.000E+00

     Laue-RISM Calculation

     convergence threshold    = 1.000E-06
     iter. #     1  RMS(g-h-1)= 8.229E-05  nbox=  0
     iter. #    11  RMS(g-h-1)= 1.075E-05  nbox= 10
     iter. #    21  RMS(g-h-1)= 4.575E-06  nbox= 20
     iter. #    31  RMS(g-h-1)= 3.408E-06  nbox= 20
     iter. #    41  RMS(g-h-1)= 2.890E-06  nbox= 20
     iter. #    51  RMS(g-h-1)= 2.423E-06  nbox= 20
     iter. #    61  RMS(g-h-1)= 2.135E-06  nbox=  8
     iter. #    71  RMS(g-h-1)= 1.812E-06  nbox=  2
     iter. #    81  RMS(g-h-1)= 1.406E-06  nbox= 12
     iter. #    91  RMS(g-h-1)= 1.272E-06  nbox=  6
     iter. #   101  RMS(g-h-1)= 1.210E-06  nbox= 16
     iter. #   111  RMS(g-h-1)= 1.148E-06  nbox= 10
     iter. #   121  RMS(g-h-1)= 1.109E-06  nbox=  4
     iter. #   131  RMS(g-h-1)= 1.000E-06  nbox= 14
     iter. #   132  RMS(g-h-1)= 9.909E-07  nbox= 15

     End of Laue-RISM calculation


     convergence has been achieved in   132 iterations


     solvent charge   -0.20014, renormalised to   -0.20000

     Total number of solvent (in expand-cell)
     H2O           33.116843
     K+             0.567614
     OH-            0.767692

     Total charge of solvent (in expand-cell)
     H2O           -0.000010 e
     K+             0.567614 e
     OH-           -0.767744 e
     Total         -0.200140 e

     Chemical potential of solvation (in expand-cell)
     H2O        GaussFluct   0.843620E+00 kcal/mol
     K+         GaussFluct  -0.244169E+03 kcal/mol
     OH-        GaussFluct   0.249028E+03 kcal/mol
     Total      GaussFluct   0.570283E+01 kcal/mol


     total cpu time spent up to now is      575.8 secs

     total energy              =   -4845.01252747 Ry
     estimated scf accuracy    <       0.00000209 Ry

     iteration # 16     ecut=    40.00 Ry     beta= 0.10
     RMM-DIIS diagonalization
     ethr =  9.16E-10,  avg # of iterations =  3.5

     negative rho (up, down):  1.626E-03 0.000E+00

     Laue-RISM Calculation

     convergence threshold    = 1.000E-06
     iter. #     1  RMS(g-h-1)= 3.888E-05  nbox=  0
     iter. #    11  RMS(g-h-1)= 5.733E-06  nbox= 10
     iter. #    21  RMS(g-h-1)= 2.299E-06  nbox= 20
     iter. #    31  RMS(g-h-1)= 1.627E-06  nbox= 20
     iter. #    41  RMS(g-h-1)= 1.434E-06  nbox= 20
     iter. #    51  RMS(g-h-1)= 1.268E-06  nbox= 20
     iter. #    61  RMS(g-h-1)= 1.129E-06  nbox=  8
     iter. #    71  RMS(g-h-1)= 1.018E-06  nbox=  2
     iter. #    74  RMS(g-h-1)= 9.980E-07  nbox=  5

     End of Laue-RISM calculation


     convergence has been achieved in    74 iterations


     solvent charge   -0.20002, renormalised to   -0.20000

     Total number of solvent (in expand-cell)
     H2O           33.116764
     K+             0.567640
     OH-            0.767657

     Total charge of solvent (in expand-cell)
     H2O            0.000005 e
     K+             0.567640 e
     OH-           -0.767669 e
     Total         -0.200024 e

     Chemical potential of solvation (in expand-cell)
     H2O        GaussFluct   0.847088E+00 kcal/mol
     K+         GaussFluct  -0.244163E+03 kcal/mol
     OH-        GaussFluct   0.249012E+03 kcal/mol
     Total      GaussFluct   0.569583E+01 kcal/mol


     total cpu time spent up to now is      582.3 secs

     total energy              =   -4845.01251684 Ry
     estimated scf accuracy    <       0.00000102 Ry

     iteration # 17     ecut=    40.00 Ry     beta= 0.10
     RMM-DIIS diagonalization
     ethr =  4.47E-10,  avg # of iterations =  2.8

     negative rho (up, down):  1.626E-03 0.000E+00

     Laue-RISM Calculation

     convergence threshold    = 1.000E-06
     iter. #     1  RMS(g-h-1)= 5.887E-05  nbox=  0
     iter. #    11  RMS(g-h-1)= 1.161E-05  nbox= 10
     iter. #    21  RMS(g-h-1)= 4.639E-06  nbox= 20
     iter. #    31  RMS(g-h-1)= 3.155E-06  nbox= 20
     iter. #    41  RMS(g-h-1)= 2.705E-06  nbox= 20
     iter. #    51  RMS(g-h-1)= 2.380E-06  nbox= 20
     iter. #    61  RMS(g-h-1)= 2.089E-06  nbox= 10
     iter. #    71  RMS(g-h-1)= 1.768E-06  nbox=  4
     iter. #    81  RMS(g-h-1)= 1.400E-06  nbox= 14
     iter. #    91  RMS(g-h-1)= 1.150E-06  nbox=  8
     iter. #   101  RMS(g-h-1)= 1.001E-06  nbox=  2
     iter. #   102  RMS(g-h-1)= 9.868E-07  nbox=  3

     End of Laue-RISM calculation


     convergence has been achieved in   102 iterations


     solvent charge   -0.19989, renormalised to   -0.20000

     Total number of solvent (in expand-cell)
     H2O           33.116330
     K+             0.567603
     OH-            0.767568

     Total charge of solvent (in expand-cell)
     H2O            0.000006 e
     K+             0.567603 e
     OH-           -0.767496 e
     Total         -0.199887 e

     Chemical potential of solvation (in expand-cell)
     H2O        GaussFluct   0.849703E+00 kcal/mol
     K+         GaussFluct  -0.244175E+03 kcal/mol
     OH-        GaussFluct   0.249035E+03 kcal/mol
     Total      GaussFluct   0.570930E+01 kcal/mol


     total cpu time spent up to now is      590.1 secs

     End of self-consistent calculation

          k = 0.1250 0.0722 0.0000 ( 19861 PWs)   bands (ev):

  -117.3477-117.3400-117.3397-117.3397-117.0802-117.0726-117.0723-117.0723
  -117.0539-117.0463-117.0460-117.0460 -74.7758 -74.7758 -74.7724 -74.7455
   -74.7356 -74.7353 -74.7353 -74.7208 -74.7208 -74.7207 -74.7030 -74.7023
   -74.5337 -74.5337 -74.5185 -74.5104 -74.5104 -74.4964 -74.4827 -74.4710
   -74.4710 -74.4653 -74.4591 -74.4502 -74.4486 -74.4486 -74.4417 -74.4319
   -74.4280 -74.4250 -74.4247 -74.4247 -74.4022 -74.3954 -74.3950 -74.3950
   -13.2492 -11.2971  -9.8209  -9.5741  -9.4336  -9.4336  -9.2515  -9.2079
    -9.2079  -8.8805  -8.8409  -8.8409  -8.7445  -8.7445  -8.7434  -8.1604
    -8.1604  -8.1484  -7.8079  -7.8062  -7.8022  -7.8022  -7.7686  -7.6988
    -7.6865  -7.5807  -7.5807  -7.5094  -7.4982  -7.4880  -7.4176  -7.3552
    -7.3551  -7.3218  -7.3218  -6.9500  -6.9500  -6.9228  -6.9221  -6.9198
    -6.8470  -6.8431  -6.8431  -6.7580  -6.6104  -6.5252  -6.5229  -6.5229
    -6.4962  -6.4566  -6.4486  -6.4486  -6.4215  -6.4215  -6.4089  -6.4003
    -6.2994  -6.2994  -6.2217  -6.2217  -6.2108  -6.1891  -5.9996  -5.5802
    -4.8391  -4.8391  -4.5023  -4.4816  -3.7978  -3.7978  -2.8140  -2.8140
    -2.5584  -0.5135  -0.2633  -0.2633  -0.1937  -0.1763  -0.1402   0.4781
     0.6273   0.6273   0.7323   0.7941   1.7429   1.9785   1.9957   1.9957
     2.0586

          k = 0.1250 0.3608 0.0000 ( 19876 PWs)   bands (ev):

  -117.3460-117.3415-117.3406-117.3392-117.0785-117.0740-117.0731-117.0718
  -117.0522-117.0477-117.0469-117.0455 -74.7690 -74.7627 -74.7606 -74.7432
   -74.7374 -74.7362 -74.7348 -74.7333 -74.7246 -74.7193 -74.7163 -74.7059
   -74.5266 -74.5197 -74.5097 -74.5033 -74.4964 -74.4876 -74.4857 -74.4839
   -74.4776 -74.4657 -74.4623 -74.4616 -74.4573 -74.4542 -74.4434 -74.4349
   -74.4303 -74.4262 -74.4254 -74.4242 -74.4007 -74.3966 -74.3958 -74.3946
   -12.5332 -10.6439 -10.2428  -9.7268  -9.3222  -9.2983  -9.1278  -9.0533
    -8.9334  -8.7755  -8.7172  -8.6556  -8.4890  -8.4564  -8.4459  -8.1578
    -8.1457  -8.1357  -8.0619  -7.9327  -7.9097  -7.8434  -7.8011  -7.7887
    -7.6720  -7.6399  -7.5764  -7.5624  -7.5118  -7.4914  -7.4574  -7.4511
    -7.4466  -7.3612  -7.2315  -7.2080  -7.2034  -7.1278  -7.1171  -7.1007
    -7.0767  -7.0574  -7.0321  -6.9719  -6.9136  -6.8965  -6.8716  -6.7915
    -6.7647  -6.7526  -6.7011  -6.6119  -6.6104  -6.5481  -6.5418  -6.4508
    -6.4476  -6.4185  -6.4171  -6.3956  -6.3468  -6.3433  -6.2759  -5.7741
    -5.7216  -5.2838  -4.8996  -3.7014  -3.2597  -3.2208  -2.5783  -2.4152
    -1.7967   0.0275   0.1470   0.2201   0.5305   0.5486   0.8270   1.1283
     1.1912   1.3993   1.4711   2.0889   2.4503   2.6161   2.6321   2.8350
     2.9950

          k = 0.1250-0.5052 0.0000 ( 19917 PWs)   bands (ev):

  -117.3445-117.3429-117.3407-117.3391-117.0770-117.0754-117.0732-117.0717
  -117.0508-117.0492-117.0470-117.0454 -74.7623 -74.7592 -74.7470 -74.7418
   -74.7413 -74.7393 -74.7364 -74.7343 -74.7337 -74.7267 -74.7132 -74.7084
   -74.5134 -74.5124 -74.5044 -74.4995 -74.4945 -74.4904 -74.4897 -74.4812
   -74.4808 -74.4766 -74.4709 -74.4646 -74.4581 -74.4569 -74.4422 -74.4347
   -74.4289 -74.4275 -74.4255 -74.4241 -74.3994 -74.3979 -74.3959 -74.3945
   -11.8578 -11.0464 -10.0872  -9.7482  -9.5729  -9.0369  -8.9568  -8.8712
    -8.7936  -8.7527  -8.5658  -8.5566  -8.3930  -8.3565  -8.3220  -8.2014
    -8.1726  -8.1579  -8.0925  -8.0827  -7.9819  -7.9631  -7.7975  -7.7920
    -7.6856  -7.6671  -7.5893  -7.5777  -7.5652  -7.5465  -7.5375  -7.5035
    -7.4938  -7.4200  -7.4009  -7.3610  -7.3574  -7.3424  -7.2862  -7.2663
    -7.2179  -7.0540  -7.0357  -7.0010  -6.9337  -6.9272  -6.9075  -6.8817
    -6.8545  -6.8064  -6.7170  -6.6888  -6.6810  -6.6167  -6.6091  -6.5624
    -6.4947  -6.4449  -6.4164  -6.4033  -6.4007  -6.3486  -6.3452  -6.2657
    -5.6763  -4.8859  -4.7509  -4.0725  -3.6918  -2.4500  -2.3355  -2.3069
    -1.1956  -0.5352   0.6422   0.7922   0.8028   1.2258   1.2535   1.6277
     1.6641   1.9027   1.9627   2.0718   2.1491   2.1977   2.6940   2.8444
     2.9711

          k = 0.1250-0.2165 0.0000 ( 19876 PWs)   bands (ev):

  -117.3471-117.3403-117.3403-117.3394-117.0796-117.0729-117.0729-117.0720
  -117.0533-117.0466-117.0466-117.0457 -74.7717 -74.7703 -74.7703 -74.7447
   -74.7360 -74.7360 -74.7348 -74.7284 -74.7195 -74.7195 -74.7107 -74.7016
   -74.5276 -74.5276 -74.5178 -74.5044 -74.5044 -74.4958 -74.4902 -74.4728
   -74.4703 -74.4703 -74.4666 -74.4496 -74.4491 -74.4479 -74.4479 -74.4313
   -74.4274 -74.4252 -74.4252 -74.4244 -74.4017 -74.3956 -74.3956 -74.3948
   -13.0067 -11.0710  -9.6724  -9.6724  -9.6423  -9.2544  -9.2195  -9.2195
    -9.0934  -8.8340  -8.8340  -8.7623  -8.6381  -8.6381  -8.6255  -8.1549
    -8.1466  -8.1466  -7.9133  -7.7766  -7.7704  -7.7704  -7.7701  -7.7586
    -7.7342  -7.6053  -7.5880  -7.5880  -7.4997  -7.4633  -7.4246  -7.4007
    -7.4007  -7.3703  -7.2708  -7.0714  -7.0354  -7.0354  -7.0059  -6.9420
    -6.8925  -6.8625  -6.8625  -6.8387  -6.7282  -6.7208  -6.6701  -6.6701
    -6.5798  -6.5798  -6.5486  -6.5468  -6.4895  -6.4895  -6.4649  -6.4192
    -6.4082  -6.3416  -6.3416  -6.3143  -6.3143  -6.3027  -5.7779  -5.7779
    -5.7107  -4.8483  -4.8483  -4.0180  -3.9841  -3.1600  -2.6341  -2.4080
    -2.4080  -0.2927  -0.2757   0.0604   0.0877   0.2049   0.2049   0.7159
     0.9539   1.0708   1.2662   1.2662   1.8521   1.9788   2.0632   2.0632
     2.1951

          k = 0.3750-0.0722 0.0000 ( 19876 PWs)   bands (ev):

  -117.3460-117.3415-117.3406-117.3392-117.0785-117.0740-117.0731-117.0718
  -117.0522-117.0477-117.0469-117.0455 -74.7690 -74.7627 -74.7606 -74.7432
   -74.7374 -74.7362 -74.7348 -74.7333 -74.7246 -74.7193 -74.7163 -74.7059
   -74.5266 -74.5197 -74.5097 -74.5033 -74.4964 -74.4876 -74.4857 -74.4839
   -74.4776 -74.4657 -74.4623 -74.4616 -74.4573 -74.4542 -74.4434 -74.4349
   -74.4303 -74.4262 -74.4254 -74.4242 -74.4007 -74.3966 -74.3958 -74.3946
   -12.5332 -10.6439 -10.2428  -9.7268  -9.3222  -9.2983  -9.1278  -9.0533
    -8.9334  -8.7755  -8.7172  -8.6556  -8.4890  -8.4564  -8.4459  -8.1578
    -8.1457  -8.1357  -8.0619  -7.9327  -7.9097  -7.8434  -7.8011  -7.7887
    -7.6720  -7.6399  -7.5764  -7.5624  -7.5118  -7.4914  -7.4574  -7.4511
    -7.4466  -7.3612  -7.2315  -7.2080  -7.2034  -7.1278  -7.1171  -7.1007
    -7.0767  -7.0574  -7.0321  -6.9719  -6.9136  -6.8965  -6.8716  -6.7915
    -6.7647  -6.7526  -6.7011  -6.6119  -6.6104  -6.5481  -6.5418  -6.4508
    -6.4476  -6.4185  -6.4171  -6.3956  -6.3468  -6.3433  -6.2759  -5.7741
    -5.7216  -5.2838  -4.8996  -3.7014  -3.2597  -3.2208  -2.5783  -2.4152
    -1.7967   0.0275   0.1470   0.2200   0.5305   0.5486   0.8270   1.1282
     1.1912   1.3993   1.4711   2.0890   2.4503   2.6158   2.6321   2.8379
     2.9949

          k = 0.3750 0.2165 0.0000 ( 19929 PWs)   bands (ev):

  -117.3455-117.3423-117.3397-117.3397-117.0780-117.0748-117.0723-117.0723
  -117.0517-117.0486-117.0460-117.0460 -74.7666 -74.7666 -74.7520 -74.7425
   -74.7384 -74.7352 -74.7352 -74.7301 -74.7301 -74.7229 -74.7155 -74.7082
   -74.5265 -74.5265 -74.5031 -74.5031 -74.4985 -74.4783 -74.4783 -74.4776
   -74.4765 -74.4704 -74.4703 -74.4561 -74.4561 -74.4540 -74.4482 -74.4468
   -74.4298 -74.4270 -74.4246 -74.4246 -74.4002 -74.3974 -74.3950 -74.3950
   -12.3040 -10.7049 -10.4490  -9.4549  -9.2454  -9.2454  -9.1939  -8.9620
    -8.9620  -8.7988  -8.6385  -8.6385  -8.4430  -8.3904  -8.3904  -8.1277
    -8.1277  -8.1210  -8.1164  -7.9857  -7.9782  -7.9782  -7.7898  -7.7680
    -7.6132  -7.6132  -7.6014  -7.5199  -7.5199  -7.5117  -7.4520  -7.4223
    -7.4113  -7.3278  -7.3016  -7.3016  -7.2975  -7.2237  -7.2237  -7.2101
    -7.1788  -7.0457  -7.0378  -6.9661  -6.9661  -6.9548  -6.8992  -6.8110
    -6.7955  -6.7955  -6.6765  -6.6407  -6.6407  -6.6351  -6.6152  -6.5796
    -6.5511  -6.4104  -6.4104  -6.3962  -6.3779  -6.3087  -6.3087  -6.2080
    -5.1032  -4.8659  -4.8659  -3.7602  -3.7331  -3.7331  -2.9263  -1.3971
    -1.3971  -0.6938   0.3657   0.6738   0.6738   0.7630   0.7822   1.4284
     1.6227   1.9532   1.9532   2.0520   2.5966   2.6630   2.6680   2.6680
     2.7078

          k = 0.3750-0.6495 0.0000 ( 19872 PWs)   bands (ev):

  -117.3433-117.3433-117.3419-117.3388-117.0758-117.0758-117.0745-117.0713
  -117.0495-117.0495-117.0482-117.0451 -74.7600 -74.7527 -74.7480 -74.7412
   -74.7412 -74.7394 -74.7394 -74.7380 -74.7338 -74.7190 -74.7154 -74.7154
   -74.5210 -74.5138 -74.4975 -74.4948 -74.4918 -74.4918 -74.4902 -74.4734
   -74.4734 -74.4728 -74.4691 -74.4691 -74.4665 -74.4504 -74.4504 -74.4444
   -74.4278 -74.4278 -74.4266 -74.4238 -74.3983 -74.3983 -74.3970 -74.3941
   -11.2263 -11.2263 -10.4774  -9.6371  -9.6371  -9.2458  -8.6750  -8.6750
    -8.6550  -8.6505  -8.4779  -8.4754  -8.4446  -8.4250  -8.3049  -8.2906
    -8.2906  -8.1415  -8.1415  -8.0549  -7.8911  -7.8633  -7.8542  -7.8542
    -7.8405  -7.7644  -7.7644  -7.7618  -7.6919  -7.6919  -7.5461  -7.4873
    -7.4825  -7.4520  -7.3967  -7.3844  -7.3844  -7.3757  -7.2919  -7.2919
    -7.1118  -7.1118  -7.0014  -6.9756  -6.9119  -6.8991  -6.8991  -6.8728
    -6.8034  -6.8034  -6.7402  -6.6073  -6.6073  -6.5465  -6.5431  -6.5431
    -6.4904  -6.4642  -6.4600  -6.4600  -6.4380  -6.4376  -6.2520  -6.2520
    -6.1960  -5.7401  -4.2100  -4.2100  -3.4491  -2.2301  -1.4508  -1.4508
    -0.8900  -0.4088  -0.4010  -0.3716   1.3354   1.4580   1.4580   1.4781
     1.9205   1.9205   1.9628   1.9629   2.3238   2.5416   2.6130   2.6147
     2.7595

          k = 0.3750-0.3608 0.0000 ( 19917 PWs)   bands (ev):

  -117.3445-117.3429-117.3407-117.3391-117.0770-117.0754-117.0732-117.0717
  -117.0508-117.0492-117.0470-117.0454 -74.7623 -74.7592 -74.7470 -74.7418
   -74.7413 -74.7393 -74.7364 -74.7343 -74.7337 -74.7267 -74.7132 -74.7084
   -74.5134 -74.5124 -74.5044 -74.4995 -74.4945 -74.4904 -74.4897 -74.4812
   -74.4808 -74.4766 -74.4709 -74.4646 -74.4581 -74.4569 -74.4422 -74.4347
   -74.4289 -74.4275 -74.4255 -74.4241 -74.3994 -74.3979 -74.3959 -74.3945
   -11.8578 -11.0464 -10.0872  -9.7482  -9.5729  -9.0369  -8.9568  -8.8712
    -8.7936  -8.7527  -8.5658  -8.5566  -8.3930  -8.3565  -8.3220  -8.2014
    -8.1726  -8.1579  -8.0925  -8.0827  -7.9819  -7.9631  -7.7975  -7.7920
    -7.6856  -7.6671  -7.5893  -7.5777  -7.5652  -7.5465  -7.5375  -7.5035
    -7.4938  -7.4200  -7.4009  -7.3610  -7.3574  -7.3424  -7.2862  -7.2663
    -7.2179  -7.0540  -7.0357  -7.0010  -6.9337  -6.9272  -6.9075  -6.8817
    -6.8545  -6.8064  -6.7170  -6.6888  -6.6810  -6.6167  -6.6091  -6.5624
    -6.4947  -6.4449  -6.4164  -6.4033  -6.4007  -6.3486  -6.3452  -6.2657
    -5.6763  -4.8859  -4.7509  -4.0725  -3.6918  -2.4500  -2.3355  -2.3069
    -1.1956  -0.5352   0.6422   0.7922   0.8028   1.2258   1.2535   1.6277
     1.6641   1.9027   1.9626   2.0718   2.1491   2.1976   2.6938   2.8451
     2.9887

     the Fermi energy is    -4.8681 ev

!    total energy              =   -4845.01240517 Ry
     estimated scf accuracy    <       0.00000022 Ry
     smearing contrib. (-TS)   =      -0.00756957 Ry
     internal energy E=F+TS    =   -4845.00483559 Ry

     The total energy is F=E-TS. E is the sum of the following terms:
     one-electron contribution =   26884.84066668 Ry
     hartree contribution      =  -13454.73969287 Ry
     xc contribution           =    -465.17341872 Ry
     ewald contribution        =  -17809.95104590 Ry
     solvation energy (RISM)   =       0.01820886 Ry
     level-shifting contrib.   =       0.00044635 Ry

     convergence has been achieved in  17 iterations

     negative rho (up, down):  1.626E-03 0.000E+00

     Forces acting on atoms (cartesian axes, Ry/au):

     atom    1 type  1   force =     0.00030089    0.00017298    0.00542546
     atom    2 type  1   force =    -0.00003008   -0.00001828    0.00136048
     atom    3 type  1   force =    -0.00027190   -0.00015454   -0.00860884
     atom    4 type  1   force =     0.00030220    0.00017424    0.00542611
     atom    5 type  1   force =    -0.00003212   -0.00001860    0.00136092
     atom    6 type  1   force =    -0.00027227   -0.00015577   -0.00861025
     atom    7 type  1   force =     0.00030186    0.00017383    0.00542449
     atom    8 type  1   force =    -0.00003080   -0.00001844    0.00135931
     atom    9 type  1   force =    -0.00027034   -0.00015455   -0.00860854
     atom   10 type  1   force =     0.00030077    0.00017340    0.00542527
     atom   11 type  1   force =    -0.00002944   -0.00001826    0.00136124
     atom   12 type  1   force =    -0.00026877   -0.00015601   -0.00860911

     Total force =     0.017230     Total SCF correction =     0.003204
     SCF correction compared to forces is large: reduce conv_thr to get better values

     Writing all to output data dir ./output/opt.save/ :
     XML data file, charge density, RISM restart, pseudopotentials, RISM molfiles, collected wavefunctions
 
     init_run     :     45.76s CPU     47.98s WALL (       1 calls)
     electrons    :    433.10s CPU    450.00s WALL (       1 calls)
     forces       :      0.92s CPU      0.96s WALL (       1 calls)

     Called by init_run:
     wfcinit      :      0.45s CPU      0.66s WALL (       1 calls)
     potinit      :     45.02s CPU     46.94s WALL (       1 calls)
     hinit0       :      0.15s CPU      0.20s WALL (       1 calls)

     Called by electrons:
     c_bands      :     44.12s CPU     44.92s WALL (      17 calls)
     sum_band     :      4.16s CPU      4.74s WALL (      17 calls)
     v_of_rho     :      0.35s CPU      0.40s WALL (      18 calls)
     newd         :      0.65s CPU      1.08s WALL (      18 calls)
     mix_rho      :      0.05s CPU      0.05s WALL (      17 calls)

     Called by c_bands:
     init_us_2    :      0.34s CPU      0.35s WALL (     280 calls)
     crmmdiagg    :      9.44s CPU      9.62s WALL (      96 calls)
     wfcrot       :      5.79s CPU      5.99s WALL (      96 calls)

     Called by *rmmdiagg:
     h_psi        :     17.40s CPU     17.84s WALL (    1217 calls)
     s_psi        :      1.37s CPU      1.39s WALL (    1217 calls)
     g_psi        :      0.03s CPU      0.03s WALL (     718 calls)

     Called by h_psi:
     h_psi:calbec :      1.73s CPU      1.91s WALL (    1217 calls)
     vloc_psi     :     14.06s CPU     14.27s WALL (    1217 calls)
     add_vuspsi   :      1.42s CPU      1.45s WALL (    1217 calls)

     General routines
     calbec       :      2.30s CPU      2.55s WALL (    1385 calls)
     fft          :      0.29s CPU      0.36s WALL (     298 calls)
     ffts         :      0.01s CPU      0.02s WALL (      35 calls)
     fftw         :     13.69s CPU     13.89s WALL (  128610 calls)
     interpolate  :      0.02s CPU      0.02s WALL (      18 calls)
 
     Parallel routines
     fft_scatt_xy :      1.96s CPU      2.17s WALL (   94410 calls)
     fft_scatt_yz :     20.96s CPU     23.95s WALL (   94410 calls)

     RISM routines
     1DRISM_pre   :     91.35s CPU     91.40s WALL (       1 calls)
     1DRISM_run   :      0.03s CPU      0.04s WALL (       1 calls)
     3DRISM_pre   :      1.68s CPU      1.87s WALL (       1 calls)
     3DRISM_run   :    427.05s CPU    443.76s WALL (      18 calls)
     3DRISM_for   :      0.55s CPU      0.55s WALL (       1 calls)
     3DRISM_vsol  :      0.01s CPU      0.02s WALL (      18 calls)
 
     PWSCF        :   9m32.20s CPU   9m52.72s WALL

 
   This run was terminated on:  12: 0:24   9Jun2024            

=------------------------------------------------------------------------------=
   JOB DONE.
=------------------------------------------------------------------------------=
