
     Program DYNMAT v.7.2 starts on  4Jun2024 at 10:13:36 

     This program is part of the open-source Quantum ESPRESSO suite
     for quantum simulation of materials; please cite
         "P. Giannozzi et al., J. Phys.:Condens. Matter 21 395502 (2009);
         "P. Giannozzi et al., J. Phys.:Condens. Matter 29 465901 (2017);
         "P. Giannozzi et al., J. Chem. Phys. 152 154105 (2020);
          URL http://www.quantum-espresso.org", 
     in publications or presentations arising from this work. More details at
     http://www.quantum-espresso.org/quote

     Parallel version (MPI), running on     1 processors

     MPI processes distributed on     1 nodes
     184283 MiB available memory on the printing compute node when the environment starts
 

     Reading Dynamical Matrix from file dyn.xml
     Acoustic Sum Rule: || Z*(ASR) - Z*(orig)|| =    0.000000E+00
     Acoustic Sum Rule: ||dyn(ASR) - dyn(orig)||=    1.894039E-03
     A direction for q was not specified:TO-LO splitting will be absent

     Polarizability (A^3 units)
     multiply by 1.500000 for Clausius-Mossotti correction
       -79.577472    0.000000    0.000000
         0.000000  -79.577472    0.000000
         0.000000    0.000000  -79.577472

     IR activities are in (D/A)^2/amu units

# mode   [cm-1]    [THz]      IR
    1     -0.00   -0.0000    0.0000
    2     -0.00   -0.0000    0.0000
    3      0.00    0.0000    0.0000
    4      0.00    0.0000    0.0000
    5      0.00    0.0000    0.0000
    6      0.00    0.0000    0.0000
    7   1575.70   47.2382    0.0000
    8   3795.76  113.7941    0.0000
    9   3898.09  116.8618    0.0000
 
     DYNMAT       :      0.00s CPU      0.04s WALL

 
   This run was terminated on:  10:13:36   4Jun2024            

=------------------------------------------------------------------------------=
   JOB DONE.
=------------------------------------------------------------------------------=
