ANIMSTEPS    9
CRYSTAL
PRIMVEC
   10.000000000    0.000000000    0.000000000
    0.000000000   10.000000000    0.000000000
    0.000000000    0.000000000   10.000000000
PRIMCOORD    1
      3   1
   O      5.00000   5.00000   5.30517   0.00816   0.01368   0.00929
   H      5.00000   5.76918   4.69834   0.00870  -0.02657  -0.04174
   H      5.00000   4.23082   4.69834  -0.05283  -0.02657   0.06032
PRIMCOORD    2
      3   1
   O      5.00000   5.00000   5.30517   0.00339  -0.00181  -0.02956
   H      5.00000   5.76918   4.69834   0.03875  -0.00400  -0.03234
   H      5.00000   4.23082   4.69834  -0.07625  -0.00400  -0.02678
PRIMCOORD    3
      3   1
   O      5.00000   5.00000   5.30517   0.03050  -0.00854   0.00477
   H      5.00000   5.76918   4.69834   0.08521   0.00418   0.02089
   H      5.00000   4.23082   4.69834   0.03336   0.00418  -0.01134
PRIMCOORD    4
      3   1
   O      5.00000   5.00000   5.30517   0.01764  -0.00134  -0.00555
   H      5.00000   5.76918   4.69834  -0.09792  -0.00019  -0.00409
   H      5.00000   4.23082   4.69834   0.00154  -0.00019  -0.00701
PRIMCOORD    5
      3   1
   O      5.00000   5.00000   5.30517  -0.00397  -0.03662   0.00870
   H      5.00000   5.76918   4.69834  -0.01332  -0.05076  -0.00923
   H      5.00000   4.23082   4.69834  -0.04942  -0.05076   0.02663
PRIMCOORD    6
      3   1
   O      5.00000   5.00000   5.30517  -0.00137  -0.00069  -0.00901
   H      5.00000   5.76918   4.69834   0.00546  -0.03063  -0.04696
   H      5.00000   4.23082   4.69834   0.07049  -0.03063   0.02893
PRIMCOORD    7
      3   1
   O      5.00000   5.00000   5.30517  -0.00000   0.00000  -0.00702
   H      5.00000   5.76918   4.69834   0.00000   0.04326   0.05571
   H      5.00000   4.23082   4.69834  -0.00000  -0.04326   0.05571
PRIMCOORD    8
      3   1
   O      5.00000   5.00000   5.30517  -0.00000   0.00000  -0.00505
   H      5.00000   5.76918   4.69834  -0.00000  -0.05813   0.04009
   H      5.00000   4.23082   4.69834   0.00000   0.05813   0.04009
PRIMCOORD    9
      3   1
   O      5.00000   5.00000   5.30517  -0.00000  -0.00698  -0.00000
   H      5.00000   5.76918   4.69834  -0.00000   0.05538  -0.04369
   H      5.00000   4.23082   4.69834  -0.00000   0.05538   0.04369
