[Molden Format]
[FREQ]
    0.00
    0.00
    0.00
    0.00
    0.00
    0.00
 1575.70
 3795.76
 3898.09
[FR-COORD]
   O           9.44863        9.44863       10.02531
   H           9.44863       10.90216        8.87857
   H           9.44863        7.99510        8.87857
[FR-NORM-COORD]
 vibration     1
   0.08160   0.13684   0.09291
   0.08704  -0.26574  -0.41737
  -0.52833  -0.26574   0.60319
 vibration     2
   0.03394  -0.01808  -0.29563
   0.38748  -0.04001  -0.32342
  -0.76253  -0.04001  -0.26784
 vibration     3
   0.30500  -0.08541   0.04775
   0.85211   0.04176   0.20894
   0.33362   0.04176  -0.11344
 vibration     4
   0.17638  -0.01338  -0.05545
  -0.97919  -0.00187  -0.04086
   0.01543  -0.00187  -0.07005
 vibration     5
  -0.03967  -0.36618   0.08698
  -0.13321  -0.50762  -0.09229
  -0.49423  -0.50762   0.26626
 vibration     6
  -0.01368  -0.00691  -0.09012
   0.05457  -0.30627  -0.46957
   0.70489  -0.30627   0.28933
 vibration     7
  -0.00000   0.00000  -0.07020
   0.00000   0.43264   0.55710
  -0.00000  -0.43264   0.55710
 vibration     8
  -0.00000   0.00000  -0.05052
  -0.00000  -0.58135   0.40095
   0.00000   0.58135   0.40095
 vibration     9
  -0.00000  -0.06978  -0.00000
  -0.00000   0.55379  -0.43690
  -0.00000   0.55379   0.43690
