
     Program PHONON v.7.2 starts on  4Jun2024 at 10:13:24 

     This program is part of the open-source Quantum ESPRESSO suite
     for quantum simulation of materials; please cite
         "P. Giannozzi et al., J. Phys.:Condens. Matter 21 395502 (2009);
         "P. Giannozzi et al., J. Phys.:Condens. Matter 29 465901 (2017);
         "P. Giannozzi et al., J. Chem. Phys. 152 154105 (2020);
          URL http://www.quantum-espresso.org", 
     in publications or presentations arising from this work. More details at
     http://www.quantum-espresso.org/quote

     Parallel version (MPI), running on    16 processors

     MPI processes distributed on     1 nodes
     182359 MiB available memory on the printing compute node when the environment starts
 
     Reading input from ph.in
      Title line not specified: using 'default'.

     Reading xml data from directory:

     output/opt.save/
 
     R & G space division:  proc/nbgrp/npool/nimage =      16
     Subspace diagonalization in iterative solution of the eigenvalue problem:
     a serial algorithm will be used


     IMPORTANT: XC functional enforced from input :
     Exchange-correlation= PBE
                           (   1   4   3   4   0   0   0)
     Any further DFT definition will be discarded
     Please, verify this is what you really want

 
     Parallelization info
     --------------------
     sticks:   dense  smooth     PW     G-vecs:    dense   smooth      PW
     Min         567     283     70                40789    14397    1790
     Max         568     284     71                40794    14400    1793
     Sum        9085    4537   1129               652671   230389   28671
 
     Using Slab Decomposition
 

     negative rho (up, down):  2.004E-03 0.000E+00
     Reading collected, re-writing distributed wavefunctions in output/

     Calculation of q =    0.0000000   0.0000000   0.0000000

     default                                                                    

     bravais-lattice index     =            0
     lattice parameter (alat)  =      18.8973  a.u.
     unit-cell volume          =    6748.3345 (a.u.)^3
     number of atoms/cell      =            3
     number of atomic types    =            2
     kinetic-energy cut-off    =      40.0000  Ry
     charge density cut-off    =     320.0000  Ry
     convergence threshold     =      4.0E-17
     beta                      =       0.7000
     number of iterations used =            4
     Exchange-correlation= PBE
                           (   1   4   3   4   0   0   0)


     celldm(1)=   18.89726  celldm(2)=    0.00000  celldm(3)=    0.00000
     celldm(4)=    0.00000  celldm(5)=    0.00000  celldm(6)=    0.00000

     crystal axes: (cart. coord. in units of alat)
               a(1) = (  1.0000  0.0000  0.0000 )  
               a(2) = (  0.0000  1.0000  0.0000 )  
               a(3) = (  0.0000  0.0000  1.0000 )  

     reciprocal axes: (cart. coord. in units 2 pi/alat)
               b(1) = (  1.0000  0.0000  0.0000 )  
               b(2) = (  0.0000  1.0000  0.0000 )  
               b(3) = (  0.0000  0.0000  1.0000 )  


     Atoms inside the unit cell: 

     Cartesian axes

     site n.  atom      mass           positions (alat units)
        1     O   15.9990   tau(    1) = (    0.50000    0.50000    0.53052  )
        2     H    1.0080   tau(    2) = (    0.50000    0.57692    0.46983  )
        3     H    1.0080   tau(    3) = (    0.50000    0.42308    0.46983  )

     Computing dynamical matrix for 
                    q = (   0.0000000   0.0000000   0.0000000 )
 
      5 Sym.Ops. (with q -> -q+G )


     G cutoff = 2894.5961  (  40794 G-vectors)     FFT grid: (108,108,108)
     G cutoff = 1447.2981  (  14400 G-vectors)  smooth grid: ( 80, 80, 80)
     number of k points=     1
                       cart. coord. in units 2pi/alat
        k(    1) = (   0.0000000   0.0000000   0.0000000), wk =   2.0000000

     PseudoPot. # 1 for O  read from file:
     ../../pseudo/o_pbe_v1.2.uspp.F.UPF
     MD5 check sum: 734c27235a0248c51dbae37a1fbe46ec
     Pseudo is Ultrasoft + core correction, Zval =  6.0
     Generated by new atomic code, or converted to UPF format
     Using radial grid of  737 points,  5 beta functions with: 
                l(1) =   0
                l(2) =   0
                l(3) =   1
                l(4) =   1
                l(5) =   2
     Q(r) pseudized with  8 coefficients,  rinner =    0.900   0.900   0.900
                                                       0.900   0.900

     PseudoPot. # 2 for H  read from file:
     ../../pseudo/h_pbe_v1.4.uspp.F.UPF
     MD5 check sum: 761ae9a214b05c3daf00ab9f6b793d6f
     Pseudo is Ultrasoft, Zval =  1.0
     Generated by new atomic code, or converted to UPF format
     Using radial grid of  615 points,  2 beta functions with: 
                l(1) =   0
                l(2) =   0
     Q(r) pseudized with  8 coefficients,  rinner =    0.700

     Mode symmetry, C_2v (mm2)  point group:

     k=gamma and q=gamma tricks are used


     Atomic displacements:
     There are    9 irreducible representations

     Representation     1      1 modes -  To be done

     Representation     2      1 modes -  To be done

     Representation     3      1 modes -  To be done

     Representation     4      1 modes -  To be done

     Representation     5      1 modes -  To be done

     Representation     6      1 modes -  To be done

     Representation     7      1 modes - Calculated using symmetry

     Representation     8      1 modes - Calculated using symmetry

     Representation     9      1 modes - Calculated using symmetry



     Alpha used in Ewald sum =   2.8000

     negative rho (up, down):  2.004E-03 0.000E+00
     PHONON       :      2.16s CPU      2.47s WALL



     Representation #   1 mode #   1

     Self-consistent Calculation

      iter #   1 total cpu time :     2.7 secs   av.it.:   6.0
      thresh= 1.000E-02 alpha_mix =  0.700 |ddv_scf|^2 =  2.240E-07

      iter #   2 total cpu time :     2.9 secs   av.it.:  11.0
      thresh= 4.733E-05 alpha_mix =  0.700 |ddv_scf|^2 =  2.477E-08

      iter #   3 total cpu time :     3.1 secs   av.it.:  10.0
      thresh= 1.574E-05 alpha_mix =  0.700 |ddv_scf|^2 =  1.286E-10

      iter #   4 total cpu time :     3.3 secs   av.it.:  11.0
      thresh= 1.134E-06 alpha_mix =  0.700 |ddv_scf|^2 =  1.092E-12

      iter #   5 total cpu time :     3.5 secs   av.it.:  10.0
      thresh= 1.045E-07 alpha_mix =  0.700 |ddv_scf|^2 =  4.827E-15

      iter #   6 total cpu time :     3.7 secs   av.it.:  10.0
      thresh= 6.947E-09 alpha_mix =  0.700 |ddv_scf|^2 =  1.301E-17

     End of self-consistent calculation

     Convergence has been achieved 


     Representation #   2 mode #   2

     Self-consistent Calculation

      iter #   1 total cpu time :     3.9 secs   av.it.:   6.0
      thresh= 1.000E-02 alpha_mix =  0.700 |ddv_scf|^2 =  1.102E-07

      iter #   2 total cpu time :     4.1 secs   av.it.:  11.0
      thresh= 3.320E-05 alpha_mix =  0.700 |ddv_scf|^2 =  1.019E-08

      iter #   3 total cpu time :     4.3 secs   av.it.:  11.0
      thresh= 1.009E-05 alpha_mix =  0.700 |ddv_scf|^2 =  7.402E-10

      iter #   4 total cpu time :     4.5 secs   av.it.:  10.0
      thresh= 2.721E-06 alpha_mix =  0.700 |ddv_scf|^2 =  1.369E-12

      iter #   5 total cpu time :     4.8 secs   av.it.:  11.0
      thresh= 1.170E-07 alpha_mix =  0.700 |ddv_scf|^2 =  2.080E-14

      iter #   6 total cpu time :     5.0 secs   av.it.:  10.0
      thresh= 1.442E-08 alpha_mix =  0.700 |ddv_scf|^2 =  7.432E-17

      iter #   7 total cpu time :     5.1 secs   av.it.:  10.0
      thresh= 8.621E-10 alpha_mix =  0.700 |ddv_scf|^2 =  1.703E-18

     End of self-consistent calculation

     Convergence has been achieved 


     Representation #   3 mode #   3

     Self-consistent Calculation

      iter #   1 total cpu time :     5.4 secs   av.it.:   6.0
      thresh= 1.000E-02 alpha_mix =  0.700 |ddv_scf|^2 =  1.289E-07

      iter #   2 total cpu time :     5.6 secs   av.it.:  12.0
      thresh= 3.590E-05 alpha_mix =  0.700 |ddv_scf|^2 =  1.469E-08

      iter #   3 total cpu time :     5.8 secs   av.it.:  12.0
      thresh= 1.212E-05 alpha_mix =  0.700 |ddv_scf|^2 =  1.534E-08

      iter #   4 total cpu time :     6.0 secs   av.it.:  11.0
      thresh= 1.238E-05 alpha_mix =  0.700 |ddv_scf|^2 =  1.003E-10

      iter #   5 total cpu time :     6.2 secs   av.it.:  11.0
      thresh= 1.001E-06 alpha_mix =  0.700 |ddv_scf|^2 =  6.419E-12

      iter #   6 total cpu time :     6.4 secs   av.it.:  11.0
      thresh= 2.534E-07 alpha_mix =  0.700 |ddv_scf|^2 =  1.142E-14

      iter #   7 total cpu time :     6.7 secs   av.it.:  10.0
      thresh= 1.069E-08 alpha_mix =  0.700 |ddv_scf|^2 =  2.820E-15

      iter #   8 total cpu time :     6.8 secs   av.it.:  11.0
      thresh= 5.310E-09 alpha_mix =  0.700 |ddv_scf|^2 =  1.393E-17

     End of self-consistent calculation

     Convergence has been achieved 


     Representation #   4 mode #   4

     Self-consistent Calculation

      iter #   1 total cpu time :     7.1 secs   av.it.:   4.0
      thresh= 1.000E-02 alpha_mix =  0.700 |ddv_scf|^2 =  3.653E-09

      iter #   2 total cpu time :     7.3 secs   av.it.:  10.0
      thresh= 6.044E-06 alpha_mix =  0.700 |ddv_scf|^2 =  4.142E-10

      iter #   3 total cpu time :     7.5 secs   av.it.:   9.0
      thresh= 2.035E-06 alpha_mix =  0.700 |ddv_scf|^2 =  1.113E-12

      iter #   4 total cpu time :     7.7 secs   av.it.:  11.0
      thresh= 1.055E-07 alpha_mix =  0.700 |ddv_scf|^2 =  5.880E-14

      iter #   5 total cpu time :     7.9 secs   av.it.:  10.0
      thresh= 2.425E-08 alpha_mix =  0.700 |ddv_scf|^2 =  3.936E-16

      iter #   6 total cpu time :     8.1 secs   av.it.:  10.0
      thresh= 1.984E-09 alpha_mix =  0.700 |ddv_scf|^2 =  3.243E-17

     End of self-consistent calculation

     Convergence has been achieved 


     Representation #   5 mode #   5

     Self-consistent Calculation

      iter #   1 total cpu time :     8.3 secs   av.it.:   5.0
      thresh= 1.000E-02 alpha_mix =  0.700 |ddv_scf|^2 =  5.700E-09

      iter #   2 total cpu time :     8.5 secs   av.it.:  12.0
      thresh= 7.550E-06 alpha_mix =  0.700 |ddv_scf|^2 =  4.154E-09

      iter #   3 total cpu time :     8.7 secs   av.it.:  12.0
      thresh= 6.445E-06 alpha_mix =  0.700 |ddv_scf|^2 =  1.955E-10

      iter #   4 total cpu time :     8.9 secs   av.it.:  12.0
      thresh= 1.398E-06 alpha_mix =  0.700 |ddv_scf|^2 =  1.338E-11

      iter #   5 total cpu time :     9.2 secs   av.it.:  11.0
      thresh= 3.658E-07 alpha_mix =  0.700 |ddv_scf|^2 =  2.185E-13

      iter #   6 total cpu time :     9.4 secs   av.it.:  11.0
      thresh= 4.675E-08 alpha_mix =  0.700 |ddv_scf|^2 =  1.349E-15

      iter #   7 total cpu time :     9.6 secs   av.it.:  12.0
      thresh= 3.673E-09 alpha_mix =  0.700 |ddv_scf|^2 =  9.933E-17

      iter #   8 total cpu time :     9.8 secs   av.it.:  12.0
      thresh= 9.966E-10 alpha_mix =  0.700 |ddv_scf|^2 =  1.054E-17

     End of self-consistent calculation

     Convergence has been achieved 


     Representation #   6 mode #   6

     Self-consistent Calculation

      iter #   1 total cpu time :    10.0 secs   av.it.:   5.0
      thresh= 1.000E-02 alpha_mix =  0.700 |ddv_scf|^2 =  4.970E-09

      iter #   2 total cpu time :    10.2 secs   av.it.:  12.0
      thresh= 7.050E-06 alpha_mix =  0.700 |ddv_scf|^2 =  4.200E-09

      iter #   3 total cpu time :    10.4 secs   av.it.:  12.0
      thresh= 6.481E-06 alpha_mix =  0.700 |ddv_scf|^2 =  1.855E-10

      iter #   4 total cpu time :    10.6 secs   av.it.:  11.0
      thresh= 1.362E-06 alpha_mix =  0.700 |ddv_scf|^2 =  8.505E-13

      iter #   5 total cpu time :    10.8 secs   av.it.:  12.0
      thresh= 9.223E-08 alpha_mix =  0.700 |ddv_scf|^2 =  4.092E-13

      iter #   6 total cpu time :    11.0 secs   av.it.:  11.0
      thresh= 6.397E-08 alpha_mix =  0.700 |ddv_scf|^2 =  1.653E-14

      iter #   7 total cpu time :    11.2 secs   av.it.:  11.0
      thresh= 1.286E-08 alpha_mix =  0.700 |ddv_scf|^2 =  3.360E-16

      iter #   8 total cpu time :    11.4 secs   av.it.:  11.0
      thresh= 1.833E-09 alpha_mix =  0.700 |ddv_scf|^2 =  1.184E-17

     End of self-consistent calculation

     Convergence has been achieved 
 
     Number of q in the star =    1
     List of q in the star:
          1   0.000000000   0.000000000   0.000000000

     Diagonalizing the dynamical matrix

     q = (    0.000000000   0.000000000   0.000000000 ) 

 **************************************************************************
     freq (    1) =      -2.093154 [THz] =     -69.820115 [cm-1]
     freq (    2) =      -1.413469 [THz] =     -47.148256 [cm-1]
     freq (    3) =      -0.552104 [THz] =     -18.416213 [cm-1]
     freq (    4) =      -0.437708 [THz] =     -14.600357 [cm-1]
     freq (    5) =       0.756393 [THz] =      25.230543 [cm-1]
     freq (    6) =       1.519761 [THz] =      50.693761 [cm-1]
     freq (    7) =      47.245344 [THz] =    1575.935032 [cm-1]
     freq (    8) =     113.794657 [THz] =    3795.781185 [cm-1]
     freq (    9) =     116.861759 [THz] =    3898.088702 [cm-1]
 **************************************************************************

     Mode symmetry, C_2v (mm2)  point group:

     freq (   1-   1) =        -69.8  [cm-1]   -->   ?
     freq (   2-   2) =        -47.1  [cm-1]   -->   ?
     freq (   3-   3) =        -18.4  [cm-1]   -->   ?
     freq (   4-   4) =        -14.6  [cm-1]   -->   ?
     freq (   5-   5) =         25.2  [cm-1]   -->   ?
     freq (   6-   6) =         50.7  [cm-1]   -->   ?
     freq (   7-   7) =       1575.9  [cm-1]   --> A_1  D_1  S_1   I+R
     freq (   8-   8) =       3795.8  [cm-1]   --> A_1  D_1  S_1   I+R
     freq (   9-   9) =       3898.1  [cm-1]   --> B_1  D_3  S_3   I+R
 
     PHONON       :      9.87s CPU     11.53s WALL

     INITIALIZATION: 
     phq_setup    :      0.06s CPU      0.07s WALL (       1 calls)
     phq_init     :      1.80s CPU      1.85s WALL (       1 calls)
 
     phq_init     :      1.80s CPU      1.85s WALL (       1 calls)
     set_drhoc    :      0.32s CPU      0.32s WALL (       3 calls)
     init_vloc    :      0.01s CPU      0.01s WALL (       1 calls)
     init_us_1    :      0.01s CPU      0.02s WALL (       1 calls)
     init_us_2    :      0.02s CPU      0.02s WALL (      58 calls)
     newd         :      0.05s CPU      0.08s WALL (       1 calls)
     dvanqq       :      0.72s CPU      0.73s WALL (       1 calls)
     drho         :      0.55s CPU      0.58s WALL (       1 calls)
     drhous       :      0.02s CPU      0.02s WALL (       1 calls)
     nldyntot     :      0.00s CPU      0.00s WALL (       1 calls)
 
     DYNAMICAL MATRIX:
     dynmat0      :      0.28s CPU      0.30s WALL (       1 calls)
     dynmat_us    :      0.01s CPU      0.01s WALL (       1 calls)
     addusdynmat  :      0.00s CPU      0.00s WALL (       1 calls)
     d2ionq       :      0.02s CPU      0.02s WALL (       1 calls)
     dynmatcc     :      0.25s CPU      0.25s WALL (       1 calls)
     phqscf       :      7.70s CPU      9.03s WALL (       1 calls)
     dynmatrix    :      0.00s CPU      0.01s WALL (       1 calls)
 
     phqscf       :      7.70s CPU      9.03s WALL (       1 calls)
     solve_linter :      7.67s CPU      8.94s WALL (       6 calls)
     sth_kernel   :      1.20s CPU      1.30s WALL (      43 calls)
     h_prec       :      0.00s CPU      0.00s WALL (      43 calls)
     apply_dpot_b :      0.05s CPU      0.07s WALL (      37 calls)
     ortho        :      0.01s CPU      0.01s WALL (      43 calls)
     cgsolve      :      1.03s CPU      1.07s WALL (      43 calls)
     incdrhoscf   :      0.08s CPU      0.09s WALL (      43 calls)
                                        0.00s GPU  (      43 calls)
     addusddens   :      2.82s CPU      2.91s WALL (      52 calls)
     dv_of_drho   :      1.05s CPU      1.07s WALL (      43 calls)
     mix_pot      :      0.17s CPU      0.82s WALL (      43 calls)
     drhodv       :      0.03s CPU      0.03s WALL (       6 calls)
     newdq        :      2.35s CPU      2.36s WALL (      43 calls)
     adddvscf     :      0.00s CPU      0.00s WALL (      37 calls)
     drhodvus     :      0.02s CPU      0.10s WALL (       6 calls)
 
     dvqpsi_us    :      0.02s CPU      0.02s WALL (       6 calls)
                                        0.00s GPU  (       6 calls)
     dvqpsi_us_on :      0.00s CPU      0.00s WALL (       6 calls)
 
     add_vuspsi   :      0.02s CPU      0.02s WALL (     544 calls)
     addusdbec    :      0.01s CPU      0.01s WALL (      52 calls)
 
     drhodvus     :      0.02s CPU      0.10s WALL (       6 calls)
 
      General routines
     calbec       :      0.13s CPU      0.13s WALL (    1217 calls)
     fft          :      1.24s CPU      1.30s WALL (     840 calls)
     ffts         :      0.05s CPU      0.06s WALL (     165 calls)
     fftw         :      0.72s CPU      0.75s WALL (    4352 calls)
     davcio       :      0.12s CPU      0.82s WALL (     550 calls)
     write_rec    :      0.05s CPU      0.38s WALL (      49 calls)
 
      Additional routines
     ch_psi       :      0.99s CPU      1.03s WALL (     544 calls)
     last         :      0.09s CPU      0.09s WALL (     544 calls)
     Hesh         :      0.01s CPU      0.01s WALL (     544 calls)
     ch_psi_all_k :      0.08s CPU      0.08s WALL (     544 calls)
                                        0.00s GPU  (     544 calls)
     ch_psi_calbe :      0.03s CPU      0.03s WALL (     544 calls)
                                        0.00s GPU  (     544 calls)
     h_psi_bgrp   :      0.87s CPU      0.90s WALL (     544 calls)
     h_psi        :      0.87s CPU      0.90s WALL (     544 calls)
     h_psi:pot    :      0.86s CPU      0.90s WALL (     544 calls)
     h_psi:calbec :      0.05s CPU      0.05s WALL (     544 calls)
     s_psi_bgrp   :      0.05s CPU      0.05s WALL (    1131 calls)
     s_psi        :      0.04s CPU      0.04s WALL (    1131 calls)
 
 
     PHONON       :      9.87s CPU     11.53s WALL

 
   This run was terminated on:  10:13:35   4Jun2024            

=------------------------------------------------------------------------------=
   JOB DONE.
=------------------------------------------------------------------------------=
