
     Program PWSCF v.7.3.1 starts on 10Jun2024 at 12:51:36 

     This program is part of the open-source Quantum ESPRESSO suite
     for quantum simulation of materials; please cite
         "P. Giannozzi et al., J. Phys.:Condens. Matter 21 395502 (2009);
         "P. Giannozzi et al., J. Phys.:Condens. Matter 29 465901 (2017);
         "P. Giannozzi et al., J. Chem. Phys. 152 154105 (2020);
          URL http://www.quantum-espresso.org", 
     in publications or presentations arising from this work. More details at
     http://www.quantum-espresso.org/quote

     Parallel version (MPI), running on    32 processors

     MPI processes distributed on     1 nodes
     179880 MiB available memory on the printing compute node when the environment starts
 
     Reading input from scf.in

     Current dimensions of program PWSCF are:
     Max number of different atomic species (ntypx) = 10
     Max number of k-points (npk) =  40000
     Max angular momentum in pseudopotentials (lmaxx) =  4
     Message from routine iosys_1drism:
     default density from MOL file(H2O.tip5p.Nishihara.MOL) is used

     gamma-point specific algorithms are used
 
     R & G space division:  proc/nbgrp/npool/nimage =      32
     Subspace diagonalization in iterative solution of the eigenvalue problem:
     a serial algorithm will be used


     Molecule # 1 for H2O read from file:
     ../../../../pseudo/H2O.tip5p.Nishihara.MOL
     Density:
         0.26741625E+03 cell^-1
         0.49533751E-02 bohr^-3
         0.55506881E+02 mol/L
         0.99997200E+00 g/cm^3
     Permittivity:
        78.500000
     Number of atoms:   5
     Atoms:
       #  atom      X (angs)      Y (angs)      Z (angs)      Q (e)         E (kcal/mol)  S (angs)
       1  O/h2o     0.00000000   -0.06556000    0.00000000    0.00000000    0.16000000    3.12000000
       2  H/h2o     0.75695000    0.52032000    0.00000000    0.24100000    0.04600000    1.00000000
       3  H/h2o    -0.75695000    0.52032000    0.00000000    0.24100000    0.04600000    1.00000000
       4  L/h2o     0.00000000   -0.46971000    0.57154000   -0.24100000    0.04600000    1.80000000
       5  L/h2o     0.00000000   -0.46971000   -0.57154000   -0.24100000    0.04600000    1.80000000


     Molecule # 2 for Cl- read from file:
     ../../../../pseudo/Cl-.oplsaa.MOL
     Density:
         0.48177136E+01 cell^-1
         0.89238937E-04 bohr^-3
         0.10000000E+01 mol/L
         0.35452700E-01 g/cm^3
     Number of atoms:   1
     Atoms:
       #  atom      X (angs)      Y (angs)      Z (angs)      Q (e)         E (kcal/mol)  S (angs)
       1  Cl        0.00000000    0.00000000    0.00000000   -1.00000000    0.71000000    4.02000000


     Molecule # 3 for H3O+ read from file:
     ../../../../pseudo/H3O+.Bonthuls.Nishihara.MOL
     Density:
         0.48177136E+01 cell^-1
         0.89238937E-04 bohr^-3
         0.10000000E+01 mol/L
         0.19023220E-01 g/cm^3
     Number of atoms:   4
     Atoms:
       #  atom      X (angs)      Y (angs)      Z (angs)      Q (e)         E (kcal/mol)  S (angs)
       1  O/h3o     0.00000000    0.00000000    0.00000000   -1.40000000    0.19110000    3.10000000
       2  H/h3o     0.93481800    0.00000000   -0.29413400    0.80000000    0.04600000    1.00000000
       3  H/h3o    -0.46740900    0.80957600   -0.29413400    0.80000000    0.04600000    1.00000000
       4  H/h3o    -0.46740900   -0.80957600   -0.29413400    0.80000000    0.04600000    1.00000000


     1D-RISM info
     ------------
     closure equation        =           KH
     temperature             =     300.0000  kelvin
     coulomb smearing radius =       2.0000  bohr
     number of solvent sites =           10
     number of grids         =         5973
     maximum of R-space      =     999.8326  bohr
     maximum of G-space      =      18.7632  bohr^-1
     number of iterations    =        50000
     convergence threshold   =      1.0E-08
     Gaussian width of bonds =       0.3162  bohr
     size of MDIIS           =           20
     step of MDIIS           =       0.1000
     number of processes     =           32


     1D-RISM Calculation

     iter. #     1  RMS(g-h-1)= 6.393E-04  nbox=  0  T= 2400.00K
     iter. #   101  RMS(g-h-1)= 1.577E-06  nbox= 20  T= 1600.00K
     iter. #   201  RMS(g-h-1)= 1.050E-06  nbox= 20  T= 1066.67K
     iter. #   301  RMS(g-h-1)= 1.119E-06  nbox= 20  T=  711.11K
     iter. #   401  RMS(g-h-1)= 1.269E-06  nbox= 20  T=  474.07K
     iter. #   501  RMS(g-h-1)= 1.784E-06  nbox= 20  T=  316.05K
     iter. #   601  RMS(g-h-1)= 3.280E-06  nbox= 18  T=  300.00K
     iter. #   701  RMS(g-h-1)= 5.617E-07  nbox= 20  T=  300.00K
     iter. #   801  RMS(g-h-1)= 4.005E-07  nbox= 20  T=  300.00K
     iter. #   901  RMS(g-h-1)= 3.070E-07  nbox= 20  T=  300.00K
     iter. #  1001  RMS(g-h-1)= 2.336E-07  nbox= 20  T=  300.00K
     iter. #  1101  RMS(g-h-1)= 1.915E-07  nbox= 20  T=  300.00K
     iter. #  1201  RMS(g-h-1)= 1.492E-07  nbox= 20  T=  300.00K
     iter. #  1301  RMS(g-h-1)= 1.252E-07  nbox= 20  T=  300.00K
     iter. #  1401  RMS(g-h-1)= 1.122E-07  nbox= 20  T=  300.00K
     iter. #  1501  RMS(g-h-1)= 1.004E-07  nbox= 20  T=  300.00K
     iter. #  1601  RMS(g-h-1)= 8.918E-08  nbox= 20  T=  300.00K
     iter. #  1701  RMS(g-h-1)= 8.898E-08  nbox= 20  T=  300.00K
     iter. #  1801  RMS(g-h-1)= 7.685E-08  nbox= 20  T=  300.00K
     iter. #  1901  RMS(g-h-1)= 6.760E-08  nbox= 20  T=  300.00K
     iter. #  2001  RMS(g-h-1)= 5.984E-08  nbox= 20  T=  300.00K
     iter. #  2101  RMS(g-h-1)= 4.848E-08  nbox= 20  T=  300.00K
     iter. #  2201  RMS(g-h-1)= 3.850E-08  nbox= 20  T=  300.00K
     iter. #  2301  RMS(g-h-1)= 3.529E-08  nbox= 20  T=  300.00K
     iter. #  2401  RMS(g-h-1)= 3.267E-08  nbox= 20  T=  300.00K
     iter. #  2501  RMS(g-h-1)= 2.999E-08  nbox= 20  T=  300.00K
     iter. #  2601  RMS(g-h-1)= 2.854E-08  nbox= 20  T=  300.00K
     iter. #  2701  RMS(g-h-1)= 2.753E-08  nbox= 20  T=  300.00K
     iter. #  2801  RMS(g-h-1)= 2.633E-08  nbox= 20  T=  300.00K
     iter. #  2901  RMS(g-h-1)= 2.508E-08  nbox= 20  T=  300.00K
     iter. #  3001  RMS(g-h-1)= 2.424E-08  nbox= 20  T=  300.00K
     iter. #  3101  RMS(g-h-1)= 2.331E-08  nbox= 20  T=  300.00K
     iter. #  3201  RMS(g-h-1)= 2.267E-08  nbox= 20  T=  300.00K
     iter. #  3301  RMS(g-h-1)= 2.208E-08  nbox= 20  T=  300.00K
     iter. #  3401  RMS(g-h-1)= 2.079E-08  nbox= 20  T=  300.00K
     iter. #  3501  RMS(g-h-1)= 1.927E-08  nbox= 20  T=  300.00K
     iter. #  3601  RMS(g-h-1)= 1.807E-08  nbox= 20  T=  300.00K
     iter. #  3701  RMS(g-h-1)= 1.695E-08  nbox= 20  T=  300.00K
     iter. #  3801  RMS(g-h-1)= 1.612E-08  nbox= 20  T=  300.00K
     iter. #  3901  RMS(g-h-1)= 1.534E-08  nbox= 20  T=  300.00K
     iter. #  4001  RMS(g-h-1)= 1.433E-08  nbox= 20  T=  300.00K
     iter. #  4101  RMS(g-h-1)= 1.364E-08  nbox= 20  T=  300.00K
     iter. #  4201  RMS(g-h-1)= 1.324E-08  nbox= 20  T=  300.00K
     iter. #  4301  RMS(g-h-1)= 1.286E-08  nbox= 20  T=  300.00K
     iter. #  4401  RMS(g-h-1)= 1.196E-08  nbox= 20  T=  300.00K
     iter. #  4501  RMS(g-h-1)= 1.120E-08  nbox= 20  T=  300.00K
     iter. #  4601  RMS(g-h-1)= 1.059E-08  nbox= 20  T=  300.00K
     iter. #  4701  RMS(g-h-1)= 1.007E-08  nbox= 20  T=  300.00K
     iter. #  4719  RMS(g-h-1)= 9.994E-09  nbox= 20  T=  300.00K

     End of 1D-RISM calculation


     convergence has been achieved in  4719 iterations


     Chemical potential of solvation

     H2O        H2O        Closure      0.209159E+01 kcal/mol
                           GaussFluct  -0.636667E+01 kcal/mol

                Cl-        Closure     -0.423471E+00 kcal/mol
                           GaussFluct  -0.511496E+00 kcal/mol

                H3O+       Closure     -0.106539E+01 kcal/mol
                           GaussFluct  -0.120301E+01 kcal/mol

                Total      Closure      0.602725E+00 kcal/mol
                           GaussFluct  -0.808118E+01 kcal/mol

     Cl-        H2O        Closure     -0.235056E+02 kcal/mol
                           GaussFluct  -0.283915E+02 kcal/mol

                Cl-        Closure      0.351539E+06 kcal/mol
                           GaussFluct   0.351539E+06 kcal/mol

                H3O+       Closure     -0.351587E+06 kcal/mol
                           GaussFluct  -0.351587E+06 kcal/mol

                Total      Closure     -0.715056E+02 kcal/mol
                           GaussFluct  -0.765000E+02 kcal/mol

     H3O+       H2O        Closure     -0.591366E+02 kcal/mol
                           GaussFluct  -0.667755E+02 kcal/mol

                Cl-        Closure     -0.351587E+06 kcal/mol
                           GaussFluct  -0.351587E+06 kcal/mol

                H3O+       Closure      0.351545E+06 kcal/mol
                           GaussFluct   0.351544E+06 kcal/mol

                Total      Closure     -0.101177E+03 kcal/mol
                           GaussFluct  -0.109237E+03 kcal/mol

 
     Parallelization info
     --------------------
     sticks:   dense  smooth     PW     G-vecs:    dense   smooth      PW
     Min        1136     568    140               163104    57672    7192
     Max        1139     570    142               163114    57682    7206
     Sum       36381   18197   4537              5219483  1845573  230389
 
     Using Slab Decomposition
 


     bravais-lattice index     =            0
     lattice parameter (alat)  =      37.7945  a.u.
     unit-cell volume          =   53986.6760 (a.u.)^3
     number of atoms/cell      =            4
     number of atomic types    =            2
     number of electrons       =         8.00
     number of Kohn-Sham states=           20
     kinetic-energy cutoff     =      40.0000  Ry
     charge density cutoff     =     320.0000  Ry
     scf convergence threshold =      1.0E-06
     mixing beta               =       0.1000
     number of iterations used =            8  plain     mixing
     Exchange-correlation=  SLA  PW   PBX  PBC
                           (   1   4   3   4   0   0   0)

     Effective Screening Medium Method
     =================================
     Boundary Conditions: Vacuum-Slab-Vacuum
     total charge in unit cell        =   1.0000
     grid points for fit at edges     =        4 
 

     celldm(1)=  37.794522  celldm(2)=   0.000000  celldm(3)=   0.000000
     celldm(4)=   0.000000  celldm(5)=   0.000000  celldm(6)=   0.000000

     crystal axes: (cart. coord. in units of alat)
               a(1) = (   1.000000   0.000000   0.000000 )  
               a(2) = (   0.000000   1.000000   0.000000 )  
               a(3) = (   0.000000   0.000000   1.000000 )  

     reciprocal axes: (cart. coord. in units 2 pi/alat)
               b(1) = (  1.000000  0.000000  0.000000 )  
               b(2) = (  0.000000  1.000000  0.000000 )  
               b(3) = (  0.000000  0.000000  1.000000 )  


     PseudoPot. # 1 for O  read from file:
     ../../../../pseudo/o_pbe_v1.2.uspp.F.UPF
     MD5 check sum: 734c27235a0248c51dbae37a1fbe46ec
     Pseudo is Ultrasoft + core correction, Zval =  6.0
     Generated by new atomic code, or converted to UPF format
     Using radial grid of  737 points,  5 beta functions with: 
                l(1) =   0
                l(2) =   0
                l(3) =   1
                l(4) =   1
                l(5) =   2
     Q(r) pseudized with  8 coefficients,  rinner =    0.900   0.900   0.900
                                                       0.900   0.900

     PseudoPot. # 2 for H  read from file:
     ../../../../pseudo/h_pbe_v1.4.uspp.F.UPF
     MD5 check sum: 761ae9a214b05c3daf00ab9f6b793d6f
     Pseudo is Ultrasoft, Zval =  1.0
     Generated by new atomic code, or converted to UPF format
     Using radial grid of  615 points,  2 beta functions with: 
                l(1) =   0
                l(2) =   0
     Q(r) pseudized with  8 coefficients,  rinner =    0.700

     atomic species   valence    mass     pseudopotential
     O                 6.00    16.00000     O ( 1.00)
     H                 1.00     1.00800     H ( 1.00)

     No symmetry found



   Cartesian axes

     site n.     atom                  positions (alat units)
         1        O      tau(   1) = (   0.0167313  -0.0015198  -0.0000029  )
         2        H      tau(   2) = (   0.0218677   0.0278647   0.0406183  )
         3        H      tau(   3) = (   0.0218672   0.0278618  -0.0406137  )
         4        H      tau(   4) = (  -0.0304662  -0.0192067   0.0000001  )

     number of k points=     1  Gaussian smearing, width (Ry)=  0.0100
                       cart. coord. in units 2pi/alat
        k(    1) = (   0.0000000   0.0000000   0.0000000), wk =   2.0000000

     Dense  grid:  2609742 G-vectors     FFT dimensions: ( 216, 216, 216)

     Smooth grid:   922787 G-vectors     FFT dimensions: ( 160, 160, 160)

     Estimated max dynamical RAM per process >     198.26 MB

     Estimated total dynamical RAM >       6.20 GB

     Solute:
       # atom     E (kcal/mol)  S (angs)
       1  O       0.15540000    3.16600000    given
       2  H       0.04600000    1.00000000    given
       3  H       0.04600000    1.00000000    given
       4  H       0.04600000    1.00000000    given


     Laue-RISM info
     --------------
     closure equation        =           KH
     temperature             =     300.0000  kelvin
     coulomb smearing radius =       2.0000  bohr
     number of solvent sites =            6
     solvent sites           =    O/h2o   H/h2o   L/h2o      Cl
     solvent sites           =    O/h3o   H/h3o
     number of iterations    =        10000
     convergence threshold   =      1.0E-06
     convergence level       =       0.5000
     size of MDIIS           =           10
     step of MDIIS           =       0.4000
     solvent cutoff          =     160.0000  Ry
     Custom grid:   922787 G-vectors     FFT dimensions: ( 160, 160, 160)

     Boundary Conditions        : Solvent-Slab-Solvent
     unit-cell (in bohr)        : [ -18.897261  18.897261]
     expand-cell (in bohr)      : [ -79.840929  79.604713]
     solvent of left (in bohr)  : [ -79.840929   0.000000]
     solvent of right (in bohr) : [   0.000000  79.604713]
     reference of potential     : average of both sides
     #grids to fit at edges of unit-cell =    4
     Laue grid:     9099 Gxy-vectors     FFT dimensions: ( 160, 160, 675)


     Initial potential from superposition of free atoms

     starting charge       9.0000, renormalised to       8.0000

     negative rho (up, down):  7.463E-04 0.000E+00

     Laue-RISM Calculation

     convergence threshold    = 1.000E-04
     iter. #     1  RMS(g-h-1)= 9.435E-02  nbox=  0
     iter. #    11  RMS(g-h-1)= 7.076E-03  nbox= 10
     iter. #    21  RMS(g-h-1)= 4.102E-03  nbox= 10
     iter. #    31  RMS(g-h-1)= 2.013E-03  nbox= 10
     iter. #    41  RMS(g-h-1)= 1.651E-03  nbox= 10
     iter. #    51  RMS(g-h-1)= 1.039E-03  nbox= 10
     iter. #    61  RMS(g-h-1)= 8.352E-04  nbox= 10
     iter. #    71  RMS(g-h-1)= 6.796E-04  nbox=  5
     iter. #    81  RMS(g-h-1)= 4.669E-04  nbox= 10
     iter. #    91  RMS(g-h-1)= 3.513E-04  nbox= 10
     iter. #   101  RMS(g-h-1)= 2.919E-04  nbox= 10
     iter. #   111  RMS(g-h-1)= 2.280E-04  nbox=  6
     iter. #   121  RMS(g-h-1)= 1.832E-04  nbox= 10
     iter. #   131  RMS(g-h-1)= 1.572E-04  nbox=  5
     iter. #   141  RMS(g-h-1)= 1.237E-04  nbox= 10
     iter. #   151  RMS(g-h-1)= 9.822E-05  nbox=  9

     End of Laue-RISM calculation


     convergence has been achieved in   151 iterations


     solvent charge   -1.04556, renormalised to   -1.00000

     Total number of solvent (in expand-cell)
     H2O         1126.825271
     Cl-           21.053163
     H3O+          20.041856

     Total charge of solvent (in expand-cell)
     H2O           -0.014880 e
     Cl-          -21.053163 e
     H3O+          20.022479 e
     Total         -1.045564 e

     Chemical potential of solvation (in expand-cell)
     H2O        GaussFluct  -0.458817E+02 kcal/mol
     Cl-        GaussFluct   0.223352E+04 kcal/mol
     H3O+       GaussFluct  -0.223996E+04 kcal/mol
     Total      GaussFluct  -0.523155E+02 kcal/mol

     Starting wfcs are    7 randomized atomic wfcs +   13 random wfcs

     total cpu time spent up to now is      251.1 secs

     Self-consistent Calculation

     iteration #  1     ecut=    40.00 Ry     beta= 0.10
     Davidson diagonalization with overlap
     ethr =  1.00E-02,  avg # of iterations =  8.0

     negative rho (up, down):  1.158E-03 0.000E+00

     Laue-RISM Calculation

     convergence threshold    = 1.000E-04
     iter. #     1  RMS(g-h-1)= 4.806E-03  nbox=  0
     iter. #    11  RMS(g-h-1)= 5.280E-04  nbox= 10
     iter. #    21  RMS(g-h-1)= 2.513E-04  nbox= 10
     iter. #    31  RMS(g-h-1)= 1.812E-04  nbox= 10
     iter. #    41  RMS(g-h-1)= 1.285E-04  nbox= 10
     iter. #    51  RMS(g-h-1)= 1.184E-04  nbox= 10
     iter. #    61  RMS(g-h-1)= 1.073E-04  nbox=  8
     iter. #    66  RMS(g-h-1)= 9.753E-05  nbox= 10

     End of Laue-RISM calculation


     convergence has been achieved in    66 iterations


     solvent charge   -1.08227, renormalised to   -1.00000

     Total number of solvent (in expand-cell)
     H2O         1126.823605
     Cl-           21.050041
     H3O+          20.055399

     Total charge of solvent (in expand-cell)
     H2O           -0.011767 e
     Cl-          -21.050041 e
     H3O+          19.979538 e
     Total         -1.082271 e

     Chemical potential of solvation (in expand-cell)
     H2O        GaussFluct  -0.463598E+02 kcal/mol
     Cl-        GaussFluct   0.223333E+04 kcal/mol
     H3O+       GaussFluct  -0.223993E+04 kcal/mol
     Total      GaussFluct  -0.529593E+02 kcal/mol


     total cpu time spent up to now is      310.5 secs

     total energy              =     -35.95574760 Ry
     estimated scf accuracy    <       2.25045560 Ry

     iteration #  2     ecut=    40.00 Ry     beta= 0.10
     Davidson diagonalization with overlap
     ethr =  1.00E-02,  avg # of iterations =  1.0

     negative rho (up, down):  4.082E-03 0.000E+00

     Laue-RISM Calculation

     convergence threshold    = 1.000E-04
     iter. #     1  RMS(g-h-1)= 1.720E-02  nbox=  0
     iter. #    11  RMS(g-h-1)= 1.947E-03  nbox= 10
     iter. #    21  RMS(g-h-1)= 1.049E-03  nbox= 10
     iter. #    31  RMS(g-h-1)= 6.429E-04  nbox= 10
     iter. #    41  RMS(g-h-1)= 3.472E-04  nbox= 10
     iter. #    51  RMS(g-h-1)= 2.657E-04  nbox= 10
     iter. #    61  RMS(g-h-1)= 2.444E-04  nbox=  4
     iter. #    71  RMS(g-h-1)= 2.180E-04  nbox= 10
     iter. #    81  RMS(g-h-1)= 2.052E-04  nbox=  8
     iter. #    91  RMS(g-h-1)= 1.897E-04  nbox=  2
     iter. #   101  RMS(g-h-1)= 1.554E-04  nbox= 10
     iter. #   111  RMS(g-h-1)= 1.147E-04  nbox= 10
     iter. #   118  RMS(g-h-1)= 9.561E-05  nbox= 10

     End of Laue-RISM calculation


     convergence has been achieved in   118 iterations


     solvent charge   -1.12491, renormalised to   -1.00000

     Total number of solvent (in expand-cell)
     H2O         1126.888634
     Cl-           21.101985
     H3O+          20.068838

     Total charge of solvent (in expand-cell)
     H2O           -0.010965 e
     Cl-          -21.101985 e
     H3O+          19.988043 e
     Total         -1.124907 e

     Chemical potential of solvation (in expand-cell)
     H2O        GaussFluct  -0.494543E+02 kcal/mol
     Cl-        GaussFluct   0.223345E+04 kcal/mol
     H3O+       GaussFluct  -0.223974E+04 kcal/mol
     Total      GaussFluct  -0.557370E+02 kcal/mol


     total cpu time spent up to now is      407.4 secs

     total energy              =     -35.20018220 Ry
     estimated scf accuracy    <       1.37881320 Ry

     iteration #  3     ecut=    40.00 Ry     beta= 0.10
     RMM-DIIS diagonalization
     ethr =  1.00E-02,  avg # of iterations =  2.6

     negative rho (up, down):  3.916E-03 0.000E+00

     Laue-RISM Calculation

     convergence threshold    = 8.659E-05
     iter. #     1  RMS(g-h-1)= 3.606E-03  nbox=  0
     iter. #    11  RMS(g-h-1)= 3.071E-04  nbox= 10
     iter. #    21  RMS(g-h-1)= 1.578E-04  nbox= 10
     iter. #    31  RMS(g-h-1)= 1.140E-04  nbox= 10
     iter. #    37  RMS(g-h-1)= 8.303E-05  nbox= 10

     End of Laue-RISM calculation


     convergence has been achieved in    37 iterations


     solvent charge   -1.07909, renormalised to   -1.00000

     Total number of solvent (in expand-cell)
     H2O         1126.886699
     Cl-           21.063363
     H3O+          20.072600

     Total charge of solvent (in expand-cell)
     H2O           -0.015849 e
     Cl-          -21.063363 e
     H3O+          20.000120 e
     Total         -1.079092 e

     Chemical potential of solvation (in expand-cell)
     H2O        GaussFluct  -0.471777E+02 kcal/mol
     Cl-        GaussFluct   0.223265E+04 kcal/mol
     H3O+       GaussFluct  -0.223988E+04 kcal/mol
     Total      GaussFluct  -0.544124E+02 kcal/mol


     total cpu time spent up to now is      445.1 secs

     total energy              =     -35.49760170 Ry
     estimated scf accuracy    <       0.06491332 Ry

     iteration #  4     ecut=    40.00 Ry     beta= 0.10
     RMM-DIIS diagonalization
     ethr =  8.11E-04,  avg # of iterations =  3.1

     negative rho (up, down):  8.352E-03 0.000E+00

     Laue-RISM Calculation

     convergence threshold    = 1.000E-04
     iter. #     1  RMS(g-h-1)= 6.935E-03  nbox=  0
     iter. #    11  RMS(g-h-1)= 9.024E-04  nbox= 10
     iter. #    21  RMS(g-h-1)= 4.219E-04  nbox= 10
     iter. #    31  RMS(g-h-1)= 3.099E-04  nbox= 10
     iter. #    41  RMS(g-h-1)= 1.784E-04  nbox= 10
     iter. #    51  RMS(g-h-1)= 1.265E-04  nbox= 10
     iter. #    61  RMS(g-h-1)= 1.146E-04  nbox= 10
     iter. #    71  RMS(g-h-1)= 1.043E-04  nbox=  6
     iter. #    74  RMS(g-h-1)= 9.962E-05  nbox=  9

     End of Laue-RISM calculation


     convergence has been achieved in    74 iterations


     solvent charge   -1.11147, renormalised to   -1.00000

     Total number of solvent (in expand-cell)
     H2O         1126.911397
     Cl-           21.094850
     H3O+          20.102677

     Total charge of solvent (in expand-cell)
     H2O           -0.011095 e
     Cl-          -21.094850 e
     H3O+          19.994473 e
     Total         -1.111473 e

     Chemical potential of solvation (in expand-cell)
     H2O        GaussFluct  -0.489970E+02 kcal/mol
     Cl-        GaussFluct   0.223218E+04 kcal/mol
     H3O+       GaussFluct  -0.224016E+04 kcal/mol
     Total      GaussFluct  -0.569782E+02 kcal/mol


     total cpu time spent up to now is      510.0 secs

     total energy              =     -35.48770032 Ry
     estimated scf accuracy    <       0.10519717 Ry

     iteration #  5     ecut=    40.00 Ry     beta= 0.10
     Davidson diagonalization with overlap
     ethr =  8.11E-04,  avg # of iterations =  6.0

     negative rho (up, down):  7.963E-03 0.000E+00

     Laue-RISM Calculation

     convergence threshold    = 1.294E-05
     iter. #     1  RMS(g-h-1)= 1.642E-03  nbox=  0
     iter. #    11  RMS(g-h-1)= 1.915E-04  nbox= 10
     iter. #    21  RMS(g-h-1)= 1.222E-04  nbox= 10
     iter. #    31  RMS(g-h-1)= 1.103E-04  nbox= 10
     iter. #    41  RMS(g-h-1)= 1.012E-04  nbox=  5
     iter. #    51  RMS(g-h-1)= 9.410E-05  nbox= 10
     iter. #    61  RMS(g-h-1)= 7.404E-05  nbox=  9
     iter. #    71  RMS(g-h-1)= 5.833E-05  nbox= 10
     iter. #    81  RMS(g-h-1)= 4.352E-05  nbox= 10
     iter. #    91  RMS(g-h-1)= 3.537E-05  nbox= 10
     iter. #   101  RMS(g-h-1)= 2.968E-05  nbox= 10
     iter. #   111  RMS(g-h-1)= 2.427E-05  nbox= 10
     iter. #   121  RMS(g-h-1)= 2.005E-05  nbox= 10
     iter. #   131  RMS(g-h-1)= 1.712E-05  nbox= 10
     iter. #   141  RMS(g-h-1)= 1.403E-05  nbox=  7
     iter. #   143  RMS(g-h-1)= 1.272E-05  nbox=  9

     End of Laue-RISM calculation


     convergence has been achieved in   143 iterations


     solvent charge   -1.02692, renormalised to   -1.00000

     Total number of solvent (in expand-cell)
     H2O         1126.958347
     Cl-           21.074258
     H3O+          20.073084

     Total charge of solvent (in expand-cell)
     H2O           -0.011388 e
     Cl-          -21.074258 e
     H3O+          20.058721 e
     Total         -1.026924 e

     Chemical potential of solvation (in expand-cell)
     H2O        GaussFluct  -0.480961E+02 kcal/mol
     Cl-        GaussFluct   0.223227E+04 kcal/mol
     H3O+       GaussFluct  -0.224094E+04 kcal/mol
     Total      GaussFluct  -0.567685E+02 kcal/mol


     total cpu time spent up to now is      625.9 secs

     total energy              =     -35.48697484 Ry
     estimated scf accuracy    <       0.00775782 Ry

     iteration #  6     ecut=    40.00 Ry     beta= 0.10
     RMM-DIIS diagonalization
     ethr =  9.70E-05,  avg # of iterations =  3.4

     negative rho (up, down):  7.729E-03 0.000E+00

     Laue-RISM Calculation

     convergence threshold    = 7.417E-06
     iter. #     1  RMS(g-h-1)= 6.793E-04  nbox=  0
     iter. #    11  RMS(g-h-1)= 6.404E-05  nbox= 10
     iter. #    21  RMS(g-h-1)= 3.065E-05  nbox= 10
     iter. #    31  RMS(g-h-1)= 2.414E-05  nbox= 10
     iter. #    41  RMS(g-h-1)= 1.633E-05  nbox= 10
     iter. #    51  RMS(g-h-1)= 1.252E-05  nbox= 10
     iter. #    61  RMS(g-h-1)= 1.155E-05  nbox= 10
     iter. #    71  RMS(g-h-1)= 8.928E-06  nbox= 10
     iter. #    81  RMS(g-h-1)= 7.698E-06  nbox= 10
     iter. #    84  RMS(g-h-1)= 7.263E-06  nbox=  3

     End of Laue-RISM calculation


     convergence has been achieved in    84 iterations


     solvent charge   -1.01969, renormalised to   -1.00000

     Total number of solvent (in expand-cell)
     H2O         1126.983694
     Cl-           21.076218
     H3O+          20.074616

     Total charge of solvent (in expand-cell)
     H2O           -0.011857 e
     Cl-          -21.076218 e
     H3O+          20.068383 e
     Total         -1.019692 e

     Chemical potential of solvation (in expand-cell)
     H2O        GaussFluct  -0.484097E+02 kcal/mol
     Cl-        GaussFluct   0.223227E+04 kcal/mol
     H3O+       GaussFluct  -0.224106E+04 kcal/mol
     Total      GaussFluct  -0.572034E+02 kcal/mol


     total cpu time spent up to now is      698.1 secs

     total energy              =     -35.49001139 Ry
     estimated scf accuracy    <       0.00416275 Ry

     iteration #  7     ecut=    40.00 Ry     beta= 0.10
     RMM-DIIS diagonalization
     ethr =  5.20E-05,  avg # of iterations =  2.8

     negative rho (up, down):  7.551E-03 0.000E+00

     Laue-RISM Calculation

     convergence threshold    = 1.269E-06
     iter. #     1  RMS(g-h-1)= 2.795E-04  nbox=  0
     iter. #    11  RMS(g-h-1)= 3.576E-05  nbox= 10
     iter. #    21  RMS(g-h-1)= 1.771E-05  nbox= 10
     iter. #    31  RMS(g-h-1)= 1.157E-05  nbox= 10
     iter. #    41  RMS(g-h-1)= 7.321E-06  nbox= 10
     iter. #    51  RMS(g-h-1)= 6.710E-06  nbox=  2
     iter. #    61  RMS(g-h-1)= 5.991E-06  nbox= 10
     iter. #    71  RMS(g-h-1)= 5.766E-06  nbox=  6
     iter. #    81  RMS(g-h-1)= 4.967E-06  nbox= 10
     iter. #    91  RMS(g-h-1)= 4.225E-06  nbox= 10
     iter. #   101  RMS(g-h-1)= 3.824E-06  nbox=  4
     iter. #   111  RMS(g-h-1)= 3.487E-06  nbox= 10
     iter. #   121  RMS(g-h-1)= 3.156E-06  nbox=  8
     iter. #   131  RMS(g-h-1)= 2.993E-06  nbox=  2
     iter. #   141  RMS(g-h-1)= 2.754E-06  nbox= 10
     iter. #   151  RMS(g-h-1)= 2.664E-06  nbox=  6
     iter. #   161  RMS(g-h-1)= 2.548E-06  nbox= 10
     iter. #   171  RMS(g-h-1)= 2.470E-06  nbox= 10
     iter. #   181  RMS(g-h-1)= 2.421E-06  nbox=  4
     iter. #   191  RMS(g-h-1)= 2.305E-06  nbox= 10
     iter. #   201  RMS(g-h-1)= 2.245E-06  nbox=  8
     iter. #   211  RMS(g-h-1)= 2.229E-06  nbox=  2
     iter. #   221  RMS(g-h-1)= 2.184E-06  nbox= 10
     iter. #   231  RMS(g-h-1)= 2.119E-06  nbox=  6
     iter. #   241  RMS(g-h-1)= 2.007E-06  nbox= 10
     iter. #   251  RMS(g-h-1)= 1.961E-06  nbox= 10
     iter. #   261  RMS(g-h-1)= 1.898E-06  nbox=  4
     iter. #   271  RMS(g-h-1)= 1.842E-06  nbox= 10
     iter. #   281  RMS(g-h-1)= 1.827E-06  nbox=  8
     iter. #   291  RMS(g-h-1)= 1.793E-06  nbox=  2
     iter. #   301  RMS(g-h-1)= 1.744E-06  nbox= 10
     iter. #   311  RMS(g-h-1)= 1.738E-06  nbox=  6
     iter. #   321  RMS(g-h-1)= 1.724E-06  nbox= 10
     iter. #   331  RMS(g-h-1)= 1.706E-06  nbox= 10
     iter. #   341  RMS(g-h-1)= 1.691E-06  nbox=  4
     iter. #   351  RMS(g-h-1)= 1.666E-06  nbox= 10
     iter. #   361  RMS(g-h-1)= 1.640E-06  nbox=  8
     iter. #   371  RMS(g-h-1)= 1.607E-06  nbox=  2
     iter. #   381  RMS(g-h-1)= 1.579E-06  nbox= 10
     iter. #   391  RMS(g-h-1)= 1.560E-06  nbox=  6
     iter. #   401  RMS(g-h-1)= 1.533E-06  nbox= 10
     iter. #   411  RMS(g-h-1)= 1.489E-06  nbox= 10
     iter. #   421  RMS(g-h-1)= 1.453E-06  nbox=  4
     iter. #   431  RMS(g-h-1)= 1.412E-06  nbox= 10
     iter. #   441  RMS(g-h-1)= 1.372E-06  nbox=  8
     iter. #   451  RMS(g-h-1)= 1.348E-06  nbox=  2
     iter. #   461  RMS(g-h-1)= 1.321E-06  nbox= 10
     iter. #   471  RMS(g-h-1)= 1.297E-06  nbox=  6
     iter. #   481  RMS(g-h-1)= 1.271E-06  nbox= 10
     iter. #   484  RMS(g-h-1)= 1.267E-06  nbox=  3

     End of Laue-RISM calculation


     convergence has been achieved in   484 iterations


     solvent charge   -1.01175, renormalised to   -1.00000

     Total number of solvent (in expand-cell)
     H2O         1126.981663
     Cl-           21.074217
     H3O+          20.074224

     Total charge of solvent (in expand-cell)
     H2O           -0.011722 e
     Cl-          -21.074217 e
     H3O+          20.074186 e
     Total         -1.011754 e

     Chemical potential of solvation (in expand-cell)
     H2O        GaussFluct  -0.482425E+02 kcal/mol
     Cl-        GaussFluct   0.223222E+04 kcal/mol
     H3O+       GaussFluct  -0.224111E+04 kcal/mol
     Total      GaussFluct  -0.571284E+02 kcal/mol


     total cpu time spent up to now is     1059.4 secs

     total energy              =     -35.49015769 Ry
     estimated scf accuracy    <       0.00057871 Ry

     iteration #  8     ecut=    40.00 Ry     beta= 0.10
     RMM-DIIS diagonalization
     ethr =  7.23E-06,  avg # of iterations =  3.4

     negative rho (up, down):  7.225E-03 0.000E+00

     Laue-RISM Calculation

     convergence threshold    = 1.000E-06
     iter. #     1  RMS(g-h-1)= 1.291E-04  nbox=  0
     iter. #    11  RMS(g-h-1)= 1.367E-05  nbox= 10
     iter. #    21  RMS(g-h-1)= 5.704E-06  nbox= 10
     iter. #    31  RMS(g-h-1)= 4.446E-06  nbox= 10
     iter. #    41  RMS(g-h-1)= 2.938E-06  nbox= 10
     iter. #    51  RMS(g-h-1)= 2.144E-06  nbox= 10
     iter. #    61  RMS(g-h-1)= 1.966E-06  nbox= 10
     iter. #    71  RMS(g-h-1)= 1.652E-06  nbox= 10
     iter. #    81  RMS(g-h-1)= 1.585E-06  nbox=  4
     iter. #    91  RMS(g-h-1)= 1.457E-06  nbox= 10
     iter. #   101  RMS(g-h-1)= 1.364E-06  nbox=  8
     iter. #   111  RMS(g-h-1)= 1.340E-06  nbox=  2
     iter. #   121  RMS(g-h-1)= 1.308E-06  nbox= 10
     iter. #   131  RMS(g-h-1)= 1.276E-06  nbox=  6
     iter. #   141  RMS(g-h-1)= 1.255E-06  nbox= 10
     iter. #   151  RMS(g-h-1)= 1.210E-06  nbox= 10
     iter. #   161  RMS(g-h-1)= 1.187E-06  nbox=  4
     iter. #   171  RMS(g-h-1)= 1.162E-06  nbox= 10
     iter. #   181  RMS(g-h-1)= 1.152E-06  nbox=  8
     iter. #   191  RMS(g-h-1)= 1.147E-06  nbox=  2
     iter. #   201  RMS(g-h-1)= 1.142E-06  nbox= 10
     iter. #   211  RMS(g-h-1)= 1.137E-06  nbox=  6
     iter. #   221  RMS(g-h-1)= 1.127E-06  nbox= 10
     iter. #   231  RMS(g-h-1)= 1.118E-06  nbox= 10
     iter. #   241  RMS(g-h-1)= 1.107E-06  nbox=  4
     iter. #   251  RMS(g-h-1)= 1.091E-06  nbox= 10
     iter. #   261  RMS(g-h-1)= 1.077E-06  nbox=  8
     iter. #   271  RMS(g-h-1)= 1.070E-06  nbox=  2
     iter. #   281  RMS(g-h-1)= 1.062E-06  nbox= 10
     iter. #   291  RMS(g-h-1)= 1.058E-06  nbox=  6
     iter. #   301  RMS(g-h-1)= 1.049E-06  nbox= 10
     iter. #   311  RMS(g-h-1)= 1.046E-06  nbox= 10
     iter. #   321  RMS(g-h-1)= 1.042E-06  nbox=  4
     iter. #   331  RMS(g-h-1)= 1.033E-06  nbox= 10
     iter. #   341  RMS(g-h-1)= 1.023E-06  nbox=  8
     iter. #   351  RMS(g-h-1)= 1.012E-06  nbox=  2
     iter. #   357  RMS(g-h-1)= 9.998E-07  nbox=  8

     End of Laue-RISM calculation


     convergence has been achieved in   357 iterations


     solvent charge   -1.01164, renormalised to   -1.00000

     Total number of solvent (in expand-cell)
     H2O         1126.988635
     Cl-           21.075081
     H3O+          20.075075

     Total charge of solvent (in expand-cell)
     H2O           -0.011722 e
     Cl-          -21.075081 e
     H3O+          20.075162 e
     Total         -1.011642 e

     Chemical potential of solvation (in expand-cell)
     H2O        GaussFluct  -0.483679E+02 kcal/mol
     Cl-        GaussFluct   0.223222E+04 kcal/mol
     H3O+       GaussFluct  -0.224112E+04 kcal/mol
     Total      GaussFluct  -0.572633E+02 kcal/mol


     total cpu time spent up to now is     1328.8 secs

     total energy              =     -35.49020558 Ry
     estimated scf accuracy    <       0.00007545 Ry

     iteration #  9     ecut=    40.00 Ry     beta= 0.10
     RMM-DIIS diagonalization
     ethr =  9.43E-07,  avg # of iterations =  3.9

     negative rho (up, down):  6.943E-03 0.000E+00

     Laue-RISM Calculation

     convergence threshold    = 1.000E-06
     iter. #     1  RMS(g-h-1)= 6.037E-05  nbox=  0
     iter. #    11  RMS(g-h-1)= 5.610E-06  nbox= 10
     iter. #    21  RMS(g-h-1)= 2.504E-06  nbox= 10
     iter. #    31  RMS(g-h-1)= 1.657E-06  nbox= 10
     iter. #    41  RMS(g-h-1)= 1.231E-06  nbox= 10
     iter. #    51  RMS(g-h-1)= 1.159E-06  nbox= 10
     iter. #    61  RMS(g-h-1)= 1.092E-06  nbox= 10
     iter. #    71  RMS(g-h-1)= 1.064E-06  nbox=  5
     iter. #    81  RMS(g-h-1)= 1.038E-06  nbox= 10
     iter. #    91  RMS(g-h-1)= 1.021E-06  nbox=  9
     iter. #   101  RMS(g-h-1)= 1.016E-06  nbox=  3
     iter. #   111  RMS(g-h-1)= 1.006E-06  nbox= 10
     iter. #   119  RMS(g-h-1)= 9.977E-07  nbox=  5

     End of Laue-RISM calculation


     convergence has been achieved in   119 iterations


     solvent charge   -1.01200, renormalised to   -1.00000

     Total number of solvent (in expand-cell)
     H2O         1126.990740
     Cl-           21.075398
     H3O+          20.075405

     Total charge of solvent (in expand-cell)
     H2O           -0.011732 e
     Cl-          -21.075398 e
     H3O+          20.075129 e
     Total         -1.012002 e

     Chemical potential of solvation (in expand-cell)
     H2O        GaussFluct  -0.484089E+02 kcal/mol
     Cl-        GaussFluct   0.223222E+04 kcal/mol
     H3O+       GaussFluct  -0.224112E+04 kcal/mol
     Total      GaussFluct  -0.573055E+02 kcal/mol


     total cpu time spent up to now is     1425.8 secs

     total energy              =     -35.49023515 Ry
     estimated scf accuracy    <       0.00000287 Ry

     iteration # 10     ecut=    40.00 Ry     beta= 0.10
     Davidson diagonalization with overlap
     c_bands:  3 eigenvalues not converged
     ethr =  3.58E-08,  avg # of iterations = 20.0

     negative rho (up, down):  6.717E-03 0.000E+00

     Laue-RISM Calculation

     convergence threshold    = 1.000E-06
     iter. #     1  RMS(g-h-1)= 3.123E-05  nbox=  0
     iter. #    11  RMS(g-h-1)= 2.359E-06  nbox= 10
     iter. #    21  RMS(g-h-1)= 1.330E-06  nbox= 10
     iter. #    31  RMS(g-h-1)= 1.173E-06  nbox= 10
     iter. #    41  RMS(g-h-1)= 1.044E-06  nbox=  5
     iter. #    51  RMS(g-h-1)= 1.009E-06  nbox= 10
     iter. #    60  RMS(g-h-1)= 9.975E-07  nbox=  8

     End of Laue-RISM calculation


     convergence has been achieved in    60 iterations


     solvent charge   -1.01197, renormalised to   -1.00000

     Total number of solvent (in expand-cell)
     H2O         1126.990293
     Cl-           21.075357
     H3O+          20.075371

     Total charge of solvent (in expand-cell)
     H2O           -0.011732 e
     Cl-          -21.075357 e
     H3O+          20.075120 e
     Total         -1.011969 e

     Chemical potential of solvation (in expand-cell)
     H2O        GaussFluct  -0.483959E+02 kcal/mol
     Cl-        GaussFluct   0.223222E+04 kcal/mol
     H3O+       GaussFluct  -0.224112E+04 kcal/mol
     Total      GaussFluct  -0.572934E+02 kcal/mol


     total cpu time spent up to now is     1480.4 secs

     total energy              =     -35.49023219 Ry
     estimated scf accuracy    <       0.00000697 Ry

     iteration # 11     ecut=    40.00 Ry     beta= 0.10
     RMM-DIIS diagonalization
     ethr =  3.58E-08,  avg # of iterations =  3.0

     negative rho (up, down):  6.547E-03 0.000E+00

     Laue-RISM Calculation

     convergence threshold    = 1.000E-06
     iter. #     1  RMS(g-h-1)= 1.143E-05  nbox=  0
     iter. #    11  RMS(g-h-1)= 1.337E-06  nbox= 10
     iter. #    21  RMS(g-h-1)= 1.115E-06  nbox= 10
     iter. #    31  RMS(g-h-1)= 1.007E-06  nbox=  6
     iter. #    32  RMS(g-h-1)= 9.988E-07  nbox=  7

     End of Laue-RISM calculation


     convergence has been achieved in    32 iterations


     solvent charge   -1.01205, renormalised to   -1.00000

     Total number of solvent (in expand-cell)
     H2O         1126.990191
     Cl-           21.075431
     H3O+          20.075343

     Total charge of solvent (in expand-cell)
     H2O           -0.011719 e
     Cl-          -21.075431 e
     H3O+          20.075104 e
     Total         -1.012047 e

     Chemical potential of solvation (in expand-cell)
     H2O        GaussFluct  -0.484000E+02 kcal/mol
     Cl-        GaussFluct   0.223222E+04 kcal/mol
     H3O+       GaussFluct  -0.224112E+04 kcal/mol
     Total      GaussFluct  -0.572960E+02 kcal/mol


     total cpu time spent up to now is     1514.0 secs

     total energy              =     -35.49023469 Ry
     estimated scf accuracy    <       0.00000170 Ry

     iteration # 12     ecut=    40.00 Ry     beta= 0.10
     RMM-DIIS diagonalization
     ethr =  2.13E-08,  avg # of iterations =  2.7

     negative rho (up, down):  7.094E-03 0.000E+00

     Laue-RISM Calculation

     convergence threshold    = 1.000E-06
     iter. #     1  RMS(g-h-1)= 1.254E-05  nbox=  0
     iter. #    11  RMS(g-h-1)= 1.537E-06  nbox= 10
     iter. #    21  RMS(g-h-1)= 1.153E-06  nbox= 10
     iter. #    31  RMS(g-h-1)= 1.064E-06  nbox= 10
     iter. #    40  RMS(g-h-1)= 9.990E-07  nbox= 10

     End of Laue-RISM calculation


     convergence has been achieved in    40 iterations


     solvent charge   -1.01206, renormalised to   -1.00000

     Total number of solvent (in expand-cell)
     H2O         1126.990636
     Cl-           21.075489
     H3O+          20.075410

     Total charge of solvent (in expand-cell)
     H2O           -0.011718 e
     Cl-          -21.075489 e
     H3O+          20.075143 e
     Total         -1.012064 e

     Chemical potential of solvation (in expand-cell)
     H2O        GaussFluct  -0.484092E+02 kcal/mol
     Cl-        GaussFluct   0.223222E+04 kcal/mol
     H3O+       GaussFluct  -0.224112E+04 kcal/mol
     Total      GaussFluct  -0.573056E+02 kcal/mol


     total cpu time spent up to now is     1553.7 secs

     End of self-consistent calculation

          k = 0.0000 0.0000 0.0000 (115195 PWs)   bands (ev):

   -29.5629 -16.1865 -16.1839 -11.7964  -1.2682  -0.1984   0.1270   0.1293
     0.1319   0.1452   0.1461   0.2534   0.4653   0.4661   0.4798   0.5127
     0.5196   0.5226   0.5231   0.5236

     the Fermi energy is    -6.3177 ev

!    total energy              =     -35.49023571 Ry
     estimated scf accuracy    <       0.00000017 Ry
     smearing contrib. (-TS)   =      -0.00000000 Ry
     internal energy E=F+TS    =     -35.49023571 Ry

     The total energy is F=E-TS. E is the sum of the following terms:
     one-electron contribution =     -75.71251824 Ry
     hartree contribution      =      36.75112694 Ry
     xc contribution           =      -8.83886704 Ry
     ewald contribution        =      12.49278947 Ry
     solvation energy (RISM)   =      -0.18276683 Ry

     convergence has been achieved in  12 iterations

     Writing all to output data dir output/opt.save/ :
     XML data file, charge density, RISM restart, pseudopotentials, RISM molfiles, collected wavefunctions
 
     init_run     :    129.97s CPU    131.78s WALL (       1 calls)
     electrons    :   1283.72s CPU   1302.85s WALL (       1 calls)

     Called by init_run:
     wfcinit      :      0.05s CPU      0.07s WALL (       1 calls)
     potinit      :    128.52s CPU    130.15s WALL (       1 calls)
     hinit0       :      0.37s CPU      0.39s WALL (       1 calls)

     Called by electrons:
     c_bands      :      2.35s CPU      2.55s WALL (      12 calls)
     sum_band     :      2.51s CPU      3.60s WALL (      12 calls)
     v_of_rho     :      1.97s CPU      2.27s WALL (      13 calls)
     newd         :      1.54s CPU      2.61s WALL (      13 calls)
     mix_rho      :      0.48s CPU      0.54s WALL (      12 calls)

     Called by c_bands:
     init_us_2    :      0.03s CPU      0.03s WALL (      25 calls)
     rrmmdiagg    :      0.75s CPU      0.83s WALL (       8 calls)
     wfcrot       :      0.46s CPU      0.51s WALL (       9 calls)

     Called by *rmmdiagg:
     h_psi        :      1.98s CPU      2.16s WALL (      73 calls)
     s_psi        :      0.02s CPU      0.02s WALL (      73 calls)
     g_psi        :      0.00s CPU      0.00s WALL (      35 calls)

     Called by h_psi:
     h_psi:calbec :      0.03s CPU      0.04s WALL (      73 calls)
     vloc_psi     :      1.90s CPU      2.09s WALL (      73 calls)
     add_vuspsi   :      0.03s CPU      0.03s WALL (      73 calls)

     General routines
     calbec       :      0.04s CPU      0.04s WALL (      85 calls)
     fft          :      2.16s CPU      2.67s WALL (     181 calls)
     ffts         :      0.08s CPU      0.10s WALL (      25 calls)
     fftw         :      1.32s CPU      1.46s WALL (     958 calls)
     interpolate  :      0.20s CPU      0.25s WALL (      13 calls)
 
     Parallel routines
     fft_scatt_xy :     17.21s CPU     18.73s WALL (   21290 calls)
     fft_scatt_yz :     47.91s CPU     56.01s WALL (   21290 calls)

     RISM routines
     1DRISM_pre   :      0.00s CPU      0.00s WALL (       1 calls)
     1DRISM_run   :    116.40s CPU    118.32s WALL (       1 calls)
     3DRISM_pre   :     10.38s CPU     10.48s WALL (       1 calls)
     3DRISM_run   :   1392.18s CPU   1409.97s WALL (      13 calls)
     3DRISM_vsol  :      0.20s CPU      0.23s WALL (      13 calls)
 
     PWSCF        :  25m35.62s CPU  26m 4.05s WALL

 
   This run was terminated on:  13:17:40  10Jun2024            

=------------------------------------------------------------------------------=
   JOB DONE.
=------------------------------------------------------------------------------=
