
     Program PWSCF v.7.3.1 starts on 29May2024 at 11:40:56 

     This program is part of the open-source Quantum ESPRESSO suite
     for quantum simulation of materials; please cite
         "P. Giannozzi et al., J. Phys.:Condens. Matter 21 395502 (2009);
         "P. Giannozzi et al., J. Phys.:Condens. Matter 29 465901 (2017);
         "P. Giannozzi et al., J. Chem. Phys. 152 154105 (2020);
          URL http://www.quantum-espresso.org", 
     in publications or presentations arising from this work. More details at
     http://www.quantum-espresso.org/quote

     Parallel version (MPI), running on    32 processors

     MPI processes distributed on     1 nodes
     219928 MiB available memory on the printing compute node when the environment starts
 
     Reading input from scf.in

     Current dimensions of program PWSCF are:
     Max number of different atomic species (ntypx) = 10
     Max number of k-points (npk) =  40000
     Max angular momentum in pseudopotentials (lmaxx) =  4

     gamma-point specific algorithms are used
     Message from routine setup:
     using ibrav=0 with symmetry is DISCOURAGED, use correct ibrav instead
 
     R & G space division:  proc/nbgrp/npool/nimage =      32
     Subspace diagonalization in iterative solution of the eigenvalue problem:
     a serial algorithm will be used

 
     Parallelization info
     --------------------
     sticks:   dense  smooth     PW     G-vecs:    dense   smooth      PW
     Min        1136     568    140               163104    57672    7192
     Max        1139     570    142               163114    57682    7206
     Sum       36381   18197   4537              5219483  1845573  230389
 
     Using Slab Decomposition
 


     bravais-lattice index     =            0
     lattice parameter (alat)  =      37.7945  a.u.
     unit-cell volume          =   53986.6760 (a.u.)^3
     number of atoms/cell      =            2
     number of atomic types    =            1
     number of electrons       =         2.00
     number of Kohn-Sham states=           20
     kinetic-energy cutoff     =      40.0000  Ry
     charge density cutoff     =     320.0000  Ry
     scf convergence threshold =      1.0E-06
     mixing beta               =       0.1000
     number of iterations used =            8  plain     mixing
     energy convergence thresh.=      1.0E-04
     force convergence thresh. =      1.0E-03
     Exchange-correlation=  SLA  PW   PBX  PBC
                           (   1   4   3   4   0   0   0)
     nstep                     =          100


     celldm(1)=  37.794522  celldm(2)=   0.000000  celldm(3)=   0.000000
     celldm(4)=   0.000000  celldm(5)=   0.000000  celldm(6)=   0.000000

     crystal axes: (cart. coord. in units of alat)
               a(1) = (   1.000000   0.000000   0.000000 )  
               a(2) = (   0.000000   1.000000   0.000000 )  
               a(3) = (   0.000000   0.000000   1.000000 )  

     reciprocal axes: (cart. coord. in units 2 pi/alat)
               b(1) = (  1.000000  0.000000  0.000000 )  
               b(2) = (  0.000000  1.000000  0.000000 )  
               b(3) = (  0.000000  0.000000  1.000000 )  


     PseudoPot. # 1 for H  read from file:
     ../pseudo/h_pbe_v1.4.uspp.F.UPF
     MD5 check sum: 761ae9a214b05c3daf00ab9f6b793d6f
     Pseudo is Ultrasoft, Zval =  1.0
     Generated by new atomic code, or converted to UPF format
     Using radial grid of  615 points,  2 beta functions with: 
                l(1) =   0
                l(2) =   0
     Q(r) pseudized with  8 coefficients,  rinner =    0.700

     atomic species   valence    mass     pseudopotential
     H                 1.00     1.00800     H ( 1.00)

     16 Sym. Ops., with inversion, found



   Cartesian axes

     site n.     atom                  positions (alat units)
         1        H      tau(   1) = (   0.0000000   0.0000000  -0.0190410  )
         2        H      tau(   2) = (   0.0000000   0.0000000   0.0190410  )

     number of k points=     1  Gaussian smearing, width (Ry)=  0.0100
                       cart. coord. in units 2pi/alat
        k(    1) = (   0.0000000   0.0000000   0.0000000), wk =   2.0000000

     Dense  grid:  2609742 G-vectors     FFT dimensions: ( 216, 216, 216)

     Smooth grid:   922787 G-vectors     FFT dimensions: ( 160, 160, 160)

     Estimated max dynamical RAM per process >      70.36 MB

     Estimated total dynamical RAM >       2.20 GB

     Initial potential from superposition of free atoms

     starting charge       2.0000, renormalised to       2.0000

     negative rho (up, down):  6.881E-04 0.000E+00
     Starting wfcs are    2 randomized atomic wfcs +   18 random wfcs

     total cpu time spent up to now is        2.2 secs

     Self-consistent Calculation

     iteration #  1     ecut=    40.00 Ry     beta= 0.10
     Davidson diagonalization with overlap
     ethr =  1.00E-02,  avg # of iterations =  9.0

     negative rho (up, down):  7.604E-04 0.000E+00

     total cpu time spent up to now is        3.5 secs

     total energy              =      -2.36650743 Ry
     estimated scf accuracy    <       0.10786863 Ry

     iteration #  2     ecut=    40.00 Ry     beta= 0.10
     Davidson diagonalization with overlap
     ethr =  5.39E-03,  avg # of iterations =  1.0

     negative rho (up, down):  8.869E-04 0.000E+00

     total cpu time spent up to now is        4.4 secs

     total energy              =      -2.32121427 Ry
     estimated scf accuracy    <       0.08298010 Ry

     iteration #  3     ecut=    40.00 Ry     beta= 0.10
     Davidson diagonalization with overlap
     ethr =  4.15E-03,  avg # of iterations =  1.0

     negative rho (up, down):  9.144E-04 0.000E+00

     total cpu time spent up to now is        5.3 secs

     total energy              =      -2.33019711 Ry
     estimated scf accuracy    <       0.00032485 Ry

     iteration #  4     ecut=    40.00 Ry     beta= 0.10
     Davidson diagonalization with overlap
     c_bands:  4 eigenvalues not converged
     ethr =  1.62E-05,  avg # of iterations = 40.0

     negative rho (up, down):  9.732E-04 0.000E+00

     total cpu time spent up to now is        9.5 secs

     total energy              =      -2.33019592 Ry
     estimated scf accuracy    <       0.00028790 Ry

     iteration #  5     ecut=    40.00 Ry     beta= 0.10
     Davidson diagonalization with overlap
     ethr =  1.44E-05,  avg # of iterations =  9.0

     negative rho (up, down):  1.020E-03 0.000E+00

     total cpu time spent up to now is       10.6 secs

     total energy              =      -2.33023643 Ry
     estimated scf accuracy    <       0.00001345 Ry

     iteration #  6     ecut=    40.00 Ry     beta= 0.10
     Davidson diagonalization with overlap
     ethr =  6.73E-07,  avg # of iterations =  6.0

     negative rho (up, down):  1.057E-03 0.000E+00

     total cpu time spent up to now is       11.6 secs

     total energy              =      -2.33023727 Ry
     estimated scf accuracy    <       0.00000218 Ry

     iteration #  7     ecut=    40.00 Ry     beta= 0.10
     Davidson diagonalization with overlap
     ethr =  1.09E-07,  avg # of iterations =  1.0

     negative rho (up, down):  1.366E-03 0.000E+00

     total cpu time spent up to now is       12.4 secs

     End of self-consistent calculation

          k = 0.0000 0.0000 0.0000 (115195 PWs)   bands (ev):

   -10.2855  -0.1596   0.0817   0.1722   0.2063   0.2064   0.2354   0.2377
     0.3486   0.5220   0.5221   0.5557   0.6063   0.6064   0.6084   0.6086
     0.6133   0.6151   0.6151   0.7683

     the Fermi energy is    -4.7586 ev

!    total energy              =      -2.33023715 Ry
     estimated scf accuracy    <       0.00000015 Ry
     smearing contrib. (-TS)   =      -0.00000000 Ry
     internal energy E=F+TS    =      -2.33023715 Ry

     The total energy is F=E-TS. E is the sum of the following terms:
     one-electron contribution =      -4.34881787 Ry
     hartree contribution      =       2.29542904 Ry
     xc contribution           =      -1.36629852 Ry
     ewald contribution        =       1.08945020 Ry

     convergence has been achieved in   7 iterations

     Forces acting on atoms (cartesian axes, Ry/au):

     atom    1 type  1   force =     0.00000000    0.00000000    0.00007208
     atom    2 type  1   force =     0.00000000    0.00000000   -0.00007208

     Total force =     0.000102     Total SCF correction =     0.000040
     SCF correction compared to forces is large: reduce conv_thr to get better values

     BFGS Geometry Optimization
     Energy error            =      1.0E-08 Ry
     Gradient error          =      7.2E-05 Ry/Bohr

     bfgs converged in   1 scf cycles and   0 bfgs steps
     (criteria: energy <  1.0E-04 Ry, force <  1.0E-03 Ry/Bohr)

     End of BFGS Geometry Optimization

     Final energy             =      -2.3302371482 Ry
Begin final coordinates

ATOMIC_POSITIONS (angstrom)
H                0.0000000000        0.0000000000       -0.3808192597
H                0.0000000000        0.0000000000        0.3808192597
End final coordinates



     Writing all to output data dir output/opt.save/ :
     XML data file, charge density, pseudopotentials, collected wavefunctions
 
     init_run     :      1.92s CPU      2.09s WALL (       1 calls)
     electrons    :      9.45s CPU     10.42s WALL (       1 calls)
     forces       :      0.14s CPU      0.15s WALL (       1 calls)

     Called by init_run:
     wfcinit      :      0.09s CPU      0.10s WALL (       1 calls)
     potinit      :      0.37s CPU      0.44s WALL (       1 calls)
     hinit0       :      0.06s CPU      0.10s WALL (       1 calls)

     Called by electrons:
     c_bands      :      5.25s CPU      5.54s WALL (       7 calls)
     sum_band     :      0.89s CPU      0.93s WALL (       7 calls)
     v_of_rho     :      2.37s CPU      2.80s WALL (       8 calls)
     newd         :      0.37s CPU      0.39s WALL (       8 calls)
     mix_rho      :      0.51s CPU      0.55s WALL (       7 calls)

     Called by c_bands:
     init_us_2    :      0.01s CPU      0.01s WALL (      15 calls)
     regterg      :      5.25s CPU      5.53s WALL (       8 calls)

     Called by *egterg:
     rdiaghg      :      0.03s CPU      0.03s WALL (      75 calls)
     h_psi        :      4.51s CPU      4.78s WALL (      76 calls)
     s_psi        :      0.04s CPU      0.04s WALL (      76 calls)
     g_psi        :      0.01s CPU      0.01s WALL (      67 calls)

     Called by h_psi:
     h_psi:calbec :      0.04s CPU      0.04s WALL (      76 calls)
     vloc_psi     :      4.41s CPU      4.68s WALL (      76 calls)
     add_vuspsi   :      0.04s CPU      0.04s WALL (      76 calls)

     General routines
     calbec       :      0.05s CPU      0.05s WALL (      87 calls)
     fft          :      2.20s CPU      2.45s WALL (      88 calls)
     ffts         :      0.10s CPU      0.14s WALL (      15 calls)
     fftw         :      3.16s CPU      3.37s WALL (    1082 calls)
     interpolate  :      0.30s CPU      0.32s WALL (       8 calls)
 
     Parallel routines
 
     PWSCF        :     11.61s CPU     13.04s WALL

 
   This run was terminated on:  11:41: 9  29May2024            

=------------------------------------------------------------------------------=
   JOB DONE.
=------------------------------------------------------------------------------=
