
     Program PWSCF v.7.3.1 starts on  8Jun2024 at 16:51:19 

     This program is part of the open-source Quantum ESPRESSO suite
     for quantum simulation of materials; please cite
         "P. Giannozzi et al., J. Phys.:Condens. Matter 21 395502 (2009);
         "P. Giannozzi et al., J. Phys.:Condens. Matter 29 465901 (2017);
         "P. Giannozzi et al., J. Chem. Phys. 152 154105 (2020);
          URL http://www.quantum-espresso.org", 
     in publications or presentations arising from this work. More details at
     http://www.quantum-espresso.org/quote

     Parallel version (MPI), running on    32 processors

     MPI processes distributed on     1 nodes
     179831 MiB available memory on the printing compute node when the environment starts
 
     Reading input from scf_rism.in

     Current dimensions of program PWSCF are:
     Max number of different atomic species (ntypx) = 10
     Max number of k-points (npk) =  40000
     Max angular momentum in pseudopotentials (lmaxx) =  4
     Message from routine iosys_1drism:
     default density from MOL file(H2O.tip5p.Nishihara.MOL) is used

     gamma-point specific algorithms are used
     Message from routine setup:
     using ibrav=0 with symmetry is DISCOURAGED, use correct ibrav instead
 
     R & G space division:  proc/nbgrp/npool/nimage =      32
     Subspace diagonalization in iterative solution of the eigenvalue problem:
     a serial algorithm will be used


     Molecule # 1 for H2O read from file:
     ../../pseudo/H2O.tip5p.Nishihara.MOL
     Density:
         0.26741625E+03 cell^-1
         0.49533751E-02 bohr^-3
         0.55506881E+02 mol/L
         0.99997200E+00 g/cm^3
     Permittivity:
        78.500000
     Number of atoms:   5
     Atoms:
       #  atom      X (angs)      Y (angs)      Z (angs)      Q (e)         E (kcal/mol)  S (angs)
       1  O/h2o     0.00000000   -0.06556000    0.00000000    0.00000000    0.16000000    3.12000000
       2  H/h2o     0.75695000    0.52032000    0.00000000    0.24100000    0.04600000    1.00000000
       3  H/h2o    -0.75695000    0.52032000    0.00000000    0.24100000    0.04600000    1.00000000
       4  L/h2o     0.00000000   -0.46971000    0.57154000   -0.24100000    0.04600000    1.80000000
       5  L/h2o     0.00000000   -0.46971000   -0.57154000   -0.24100000    0.04600000    1.80000000


     Molecule # 2 for K+ read from file:
     ../../pseudo/K+.Hagiwara.MOL
     Density:
         0.48177136E+01 cell^-1
         0.89238937E-04 bohr^-3
         0.10000000E+01 mol/L
         0.39098300E-01 g/cm^3
     Number of atoms:   1
     Atoms:
       #  atom      X (angs)      Y (angs)      Z (angs)      Q (e)         E (kcal/mol)  S (angs)
       1  K         0.00000000    0.00000000    0.00000000    1.00000000    0.00032800    4.93462800


     Molecule # 3 for OH- read from file:
     ../../pseudo/OH-.oplsaa.MOL
     Density:
         0.48177136E+01 cell^-1
         0.89238937E-04 bohr^-3
         0.10000000E+01 mol/L
         0.17007340E-01 g/cm^3
     Number of atoms:   2
     Atoms:
       #  atom      X (angs)      Y (angs)      Z (angs)      Q (e)         E (kcal/mol)  S (angs)
       1  O/oh      0.00000000    0.00000000    0.00000000   -1.30000000    0.25000000    3.20000000
       2  H/oh      0.95300000    0.00000000    0.00000000    0.30000000    0.04600000    1.00000000


     1D-RISM info
     ------------
     closure equation        =           KH
     temperature             =     300.0000  kelvin
     coulomb smearing radius =       2.0000  bohr
     number of solvent sites =            8
     number of grids         =         4722
     maximum of R-space      =     999.7882  bohr
     maximum of G-space      =      14.8330  bohr^-1
     number of iterations    =        15000
     convergence threshold   =      1.0E-08
     Gaussian width of bonds =       0.0000  bohr
     size of MDIIS           =           20
     step of MDIIS           =       0.5000
     number of processes     =           32


     1D-RISM Calculation

     iter. #     1  RMS(g-h-1)= 7.908E-04  nbox=  0  T= 2400.00K
     iter. #   101  RMS(g-h-1)= 1.545E-06  nbox= 20  T= 1066.67K
     iter. #   201  RMS(g-h-1)= 1.911E-04  nbox=  6  T=  316.05K
     iter. #   301  RMS(g-h-1)= 3.064E-07  nbox= 20  T=  300.00K
     iter. #   370  RMS(g-h-1)= 9.120E-09  nbox= 20  T=  300.00K

     End of 1D-RISM calculation


     convergence has been achieved in   370 iterations


     Chemical potential of solvation

     H2O        H2O        Closure      0.435871E+00 kcal/mol
                           GaussFluct  -0.793665E+01 kcal/mol

                K+         Closure     -0.300569E+00 kcal/mol
                           GaussFluct  -0.371949E+00 kcal/mol

                OH-        Closure     -0.787708E+00 kcal/mol
                           GaussFluct  -0.880870E+00 kcal/mol

                Total      Closure     -0.652406E+00 kcal/mol
                           GaussFluct  -0.918947E+01 kcal/mol

     K+         H2O        Closure     -0.166837E+02 kcal/mol
                           GaussFluct  -0.206457E+02 kcal/mol

                K+         Closure      0.351529E+06 kcal/mol
                           GaussFluct   0.351529E+06 kcal/mol

                OH-        Closure     -0.351580E+06 kcal/mol
                           GaussFluct  -0.351580E+06 kcal/mol

                Total      Closure     -0.676690E+02 kcal/mol
                           GaussFluct  -0.716916E+02 kcal/mol

     OH-        H2O        Closure     -0.437232E+02 kcal/mol
                           GaussFluct  -0.488943E+02 kcal/mol

                K+         Closure     -0.351580E+06 kcal/mol
                           GaussFluct  -0.351580E+06 kcal/mol

                OH-        Closure      0.351529E+06 kcal/mol
                           GaussFluct   0.351529E+06 kcal/mol

                Total      Closure     -0.948684E+02 kcal/mol
                           GaussFluct  -0.100167E+03 kcal/mol

 
     Parallelization info
     --------------------
     sticks:   dense  smooth     PW     G-vecs:    dense   smooth      PW
     Min         709     354     88                80570    28490    3552
     Max         712     356     90                80580    28504    3558
     Sum       22733   11369   2845              2578383   911913  113801
 
     Using Slab Decomposition
 


     bravais-lattice index     =            0
     lattice parameter (alat)  =      37.7945  a.u.
     unit-cell volume          =   53986.6760 (a.u.)^3
     number of atoms/cell      =            3
     number of atomic types    =            2
     number of electrons       =         8.00
     number of Kohn-Sham states=           20
     kinetic-energy cutoff     =      25.0000  Ry
     charge density cutoff     =     200.0000  Ry
     scf convergence threshold =      1.0E-06
     mixing beta               =       0.1000
     number of iterations used =            8  plain     mixing
     Exchange-correlation=  SLA  PW   PBX  PBC
                           (   1   4   3   4   0   0   0)

     celldm(1)=  37.794522  celldm(2)=   0.000000  celldm(3)=   0.000000
     celldm(4)=   0.000000  celldm(5)=   0.000000  celldm(6)=   0.000000

     crystal axes: (cart. coord. in units of alat)
               a(1) = (   1.000000   0.000000   0.000000 )  
               a(2) = (   0.000000   1.000000   0.000000 )  
               a(3) = (   0.000000   0.000000   1.000000 )  

     reciprocal axes: (cart. coord. in units 2 pi/alat)
               b(1) = (  1.000000  0.000000  0.000000 )  
               b(2) = (  0.000000  1.000000  0.000000 )  
               b(3) = (  0.000000  0.000000  1.000000 )  


     PseudoPot. # 1 for O  read from file:
     ../../pseudo/o_pbe_v1.2.uspp.F.UPF
     MD5 check sum: 734c27235a0248c51dbae37a1fbe46ec
     Pseudo is Ultrasoft + core correction, Zval =  6.0
     Generated by new atomic code, or converted to UPF format
     Using radial grid of  737 points,  5 beta functions with: 
                l(1) =   0
                l(2) =   0
                l(3) =   1
                l(4) =   1
                l(5) =   2
     Q(r) pseudized with  8 coefficients,  rinner =    0.900   0.900   0.900
                                                       0.900   0.900

     PseudoPot. # 2 for H  read from file:
     ../../pseudo/h_pbe_v1.4.uspp.F.UPF
     MD5 check sum: 761ae9a214b05c3daf00ab9f6b793d6f
     Pseudo is Ultrasoft, Zval =  1.0
     Generated by new atomic code, or converted to UPF format
     Using radial grid of  615 points,  2 beta functions with: 
                l(1) =   0
                l(2) =   0
     Q(r) pseudized with  8 coefficients,  rinner =    0.700

     atomic species   valence    mass     pseudopotential
     O                 6.00    16.00000     O ( 1.00)
     H                 1.00     1.00800     H ( 1.00)

      4 Sym. Ops. (no inversion) found



   Cartesian axes

     site n.     atom                  positions (alat units)
         1        O      tau(   1) = (   0.0055682   0.0055682  -0.0000001  )
         2        H      tau(   2) = (   0.0272162   0.0272162   0.0386313  )
         3        H      tau(   3) = (   0.0272156   0.0272156  -0.0386304  )

     number of k points=     1  Gaussian smearing, width (Ry)=  0.0100
                       cart. coord. in units 2pi/alat
        k(    1) = (   0.0000000   0.0000000   0.0000000), wk =   2.0000000

     Dense  grid:  1289192 G-vectors     FFT dimensions: ( 180, 180, 180)

     Smooth grid:   455957 G-vectors     FFT dimensions: ( 125, 125, 125)

     Estimated max dynamical RAM per process >     100.15 MB

     Estimated total dynamical RAM >       3.13 GB

     Solute:
       # atom     E (kcal/mol)  S (angs)
       1  O       0.15540000    3.16600000    given
       2  H       0.04600000    1.00000000    given
       3  H       0.04600000    1.00000000    given


     3D-RISM info
     ------------
     closure equation        =           KH
     temperature             =     300.0000  kelvin
     coulomb smearing radius =       2.0000  bohr
     number of solvent sites =            6
     solvent sites           =    O/h2o   H/h2o   L/h2o       K
     solvent sites           =     O/oh    H/oh
     number of iterations    =        10000
     convergence threshold   =      1.0E-06
     convergence level       =       0.5000
     size of MDIIS           =           10
     step of MDIIS           =       0.4000
     solvent cutoff          =     160.0000  Ry
     Custom grid:   922787 G-vectors     FFT dimensions: ( 160, 160, 160)


     Initial potential from superposition of free atoms

     starting charge       8.0000, renormalised to       8.0000

     negative rho (up, down):  1.928E-03 0.000E+00

     3D-RISM Calculation

     convergence threshold    = 1.000E-04
     iter. #     1  RMS(g-h-1)= 4.414E-02  nbox=  0
     iter. #    11  RMS(g-h-1)= 2.025E-03  nbox= 10
     iter. #    21  RMS(g-h-1)= 1.212E-03  nbox= 10
     iter. #    31  RMS(g-h-1)= 5.404E-04  nbox= 10
     iter. #    41  RMS(g-h-1)= 3.242E-04  nbox= 10
     iter. #    51  RMS(g-h-1)= 2.891E-04  nbox= 10
     iter. #    61  RMS(g-h-1)= 1.865E-04  nbox=  8
     iter. #    71  RMS(g-h-1)= 1.508E-04  nbox= 10
     iter. #    81  RMS(g-h-1)= 1.062E-04  nbox= 10
     iter. #    87  RMS(g-h-1)= 9.975E-05  nbox= 10

     End of 3D-RISM calculation


     convergence has been achieved in    87 iterations


     solvent charge    0.01063, renormalised to   -0.00000

     Total number of solvent
     H2O          267.417690
     K+             4.817403
     OH-            4.827947

     Total charge of solvent
     H2O           -0.001695 e
     K+             4.817403 e
     OH-           -4.805078 e
     Total          0.010630 e

     Chemical potential of solvation
     H2O        Closure      0.420708E+01 kcal/mol
                GaussFluct   0.117432E+01 kcal/mol
     K+         Closure     -0.205616E+01 kcal/mol
                GaussFluct  -0.207452E+01 kcal/mol
     OH-        Closure      0.225257E+01 kcal/mol
                GaussFluct   0.219397E+01 kcal/mol
     Total      Closure      0.440349E+01 kcal/mol
                GaussFluct   0.129377E+01 kcal/mol

     Starting wfcs are    6 randomized atomic wfcs +   14 random wfcs

     total cpu time spent up to now is       24.3 secs

     Self-consistent Calculation

     iteration #  1     ecut=    25.00 Ry     beta= 0.10
     Davidson diagonalization with overlap
     ethr =  1.00E-02,  avg # of iterations =  7.0

     negative rho (up, down):  2.146E-03 0.000E+00

     3D-RISM Calculation

     convergence threshold    = 1.000E-04
     iter. #     1  RMS(g-h-1)= 4.943E-03  nbox=  0
     iter. #    11  RMS(g-h-1)= 6.621E-04  nbox= 10
     iter. #    21  RMS(g-h-1)= 3.112E-04  nbox= 10
     iter. #    31  RMS(g-h-1)= 1.704E-04  nbox= 10
     iter. #    41  RMS(g-h-1)= 1.242E-04  nbox= 10
     iter. #    48  RMS(g-h-1)= 8.190E-05  nbox= 10

     End of 3D-RISM calculation


     convergence has been achieved in    48 iterations


     solvent charge   -0.02163, renormalised to   -0.00000

     Total number of solvent
     H2O          267.417508
     K+             4.807007
     OH-            4.824876

     Total charge of solvent
     H2O           -0.003675 e
     K+             4.807007 e
     OH-           -4.824960 e
     Total         -0.021628 e

     Chemical potential of solvation
     H2O        Closure      0.389672E+01 kcal/mol
                GaussFluct   0.854185E+00 kcal/mol
     K+         Closure     -0.197187E+01 kcal/mol
                GaussFluct  -0.198570E+01 kcal/mol
     OH-        Closure      0.214555E+01 kcal/mol
                GaussFluct   0.209236E+01 kcal/mol
     Total      Closure      0.407039E+01 kcal/mol
                GaussFluct   0.960848E+00 kcal/mol


     total cpu time spent up to now is       34.8 secs

     total energy              =     -34.67854729 Ry
     estimated scf accuracy    <       0.40920589 Ry

     iteration #  2     ecut=    25.00 Ry     beta= 0.10
     Davidson diagonalization with overlap
     ethr =  5.12E-03,  avg # of iterations =  1.0

     negative rho (up, down):  2.710E-02 0.000E+00

     3D-RISM Calculation

     convergence threshold    = 1.000E-04
     iter. #     1  RMS(g-h-1)= 1.552E-02  nbox=  0
     iter. #    11  RMS(g-h-1)= 2.114E-03  nbox= 10
     iter. #    21  RMS(g-h-1)= 1.071E-03  nbox= 10
     iter. #    31  RMS(g-h-1)= 6.203E-04  nbox= 10
     iter. #    41  RMS(g-h-1)= 4.261E-04  nbox= 10
     iter. #    51  RMS(g-h-1)= 2.779E-04  nbox= 10
     iter. #    61  RMS(g-h-1)= 2.359E-04  nbox= 10
     iter. #    71  RMS(g-h-1)= 1.954E-04  nbox= 10
     iter. #    81  RMS(g-h-1)= 1.561E-04  nbox= 10
     iter. #    91  RMS(g-h-1)= 1.442E-04  nbox=  2
     iter. #   101  RMS(g-h-1)= 1.022E-04  nbox= 10
     iter. #   102  RMS(g-h-1)= 9.480E-05  nbox= 10

     End of 3D-RISM calculation


     convergence has been achieved in   102 iterations


     solvent charge   -0.02730, renormalised to   -0.00000

     Total number of solvent
     H2O          267.416940
     K+             4.826735
     OH-            4.816980

     Total charge of solvent
     H2O            0.002803 e
     K+             4.826735 e
     OH-           -4.856837 e
     Total         -0.027298 e

     Chemical potential of solvation
     H2O        Closure      0.168503E+01 kcal/mol
                GaussFluct  -0.145553E+01 kcal/mol
     K+         Closure     -0.189304E+01 kcal/mol
                GaussFluct  -0.191999E+01 kcal/mol
     OH-        Closure      0.157706E+01 kcal/mol
                GaussFluct   0.152238E+01 kcal/mol
     Total      Closure      0.136905E+01 kcal/mol
                GaussFluct  -0.185314E+01 kcal/mol


     total cpu time spent up to now is       56.6 secs

     total energy              =     -34.58232795 Ry
     estimated scf accuracy    <       0.24130643 Ry

     iteration #  3     ecut=    25.00 Ry     beta= 0.10
     Davidson diagonalization with overlap
     ethr =  3.02E-03,  avg # of iterations =  2.0

     negative rho (up, down):  3.558E-02 0.000E+00

     3D-RISM Calculation

     convergence threshold    = 3.338E-05
     iter. #     1  RMS(g-h-1)= 2.290E-03  nbox=  0
     iter. #    11  RMS(g-h-1)= 2.239E-04  nbox= 10
     iter. #    21  RMS(g-h-1)= 1.284E-04  nbox= 10
     iter. #    31  RMS(g-h-1)= 9.341E-05  nbox= 10
     iter. #    41  RMS(g-h-1)= 8.270E-05  nbox= 10
     iter. #    51  RMS(g-h-1)= 6.812E-05  nbox= 10
     iter. #    61  RMS(g-h-1)= 4.865E-05  nbox=  4
     iter. #    66  RMS(g-h-1)= 3.228E-05  nbox=  9

     End of 3D-RISM calculation


     convergence has been achieved in    66 iterations


     solvent charge   -0.00835, renormalised to   -0.00000

     Total number of solvent
     H2O          267.416382
     K+             4.817553
     OH-            4.818972

     Total charge of solvent
     H2O           -0.000834 e
     K+             4.817553 e
     OH-           -4.825068 e
     Total         -0.008349 e

     Chemical potential of solvation
     H2O        Closure      0.768537E+00 kcal/mol
                GaussFluct  -0.240286E+01 kcal/mol
     K+         Closure     -0.194737E+01 kcal/mol
                GaussFluct  -0.196988E+01 kcal/mol
     OH-        Closure      0.150197E+01 kcal/mol
                GaussFluct   0.145598E+01 kcal/mol
     Total      Closure      0.323136E+00 kcal/mol
                GaussFluct  -0.291675E+01 kcal/mol


     total cpu time spent up to now is       70.0 secs

     total energy              =     -34.62230221 Ry
     estimated scf accuracy    <       0.02236492 Ry

     iteration #  4     ecut=    25.00 Ry     beta= 0.10
     Davidson diagonalization with overlap
     c_bands:  2 eigenvalues not converged
     ethr =  2.80E-04,  avg # of iterations = 20.0

     negative rho (up, down):  7.027E-02 0.000E+00

     3D-RISM Calculation

     convergence threshold    = 2.211E-05
     iter. #     1  RMS(g-h-1)= 7.865E-03  nbox=  0
     iter. #    11  RMS(g-h-1)= 1.129E-03  nbox= 10
     iter. #    21  RMS(g-h-1)= 5.968E-04  nbox= 10
     iter. #    31  RMS(g-h-1)= 2.893E-04  nbox= 10
     iter. #    41  RMS(g-h-1)= 2.446E-04  nbox= 10
     iter. #    51  RMS(g-h-1)= 1.767E-04  nbox= 10
     iter. #    61  RMS(g-h-1)= 1.377E-04  nbox= 10
     iter. #    71  RMS(g-h-1)= 1.149E-04  nbox= 10
     iter. #    81  RMS(g-h-1)= 9.056E-05  nbox= 10
     iter. #    91  RMS(g-h-1)= 6.516E-05  nbox= 10
     iter. #   101  RMS(g-h-1)= 5.390E-05  nbox= 10
     iter. #   111  RMS(g-h-1)= 3.833E-05  nbox= 10
     iter. #   121  RMS(g-h-1)= 2.972E-05  nbox= 10
     iter. #   131  RMS(g-h-1)= 2.205E-05  nbox= 10

     End of 3D-RISM calculation


     convergence has been achieved in   131 iterations


     solvent charge   -0.00858, renormalised to   -0.00000

     Total number of solvent
     H2O          267.416263
     K+             4.817806
     OH-            4.818994

     Total charge of solvent
     H2O            0.000115 e
     K+             4.817806 e
     OH-           -4.826502 e
     Total         -0.008582 e

     Chemical potential of solvation
     H2O        Closure     -0.275348E+01 kcal/mol
                GaussFluct  -0.604221E+01 kcal/mol
     K+         Closure     -0.219625E+01 kcal/mol
                GaussFluct  -0.222182E+01 kcal/mol
     OH-        Closure      0.834754E+00 kcal/mol
                GaussFluct   0.789228E+00 kcal/mol
     Total      Closure     -0.411498E+01 kcal/mol
                GaussFluct  -0.747480E+01 kcal/mol


     total cpu time spent up to now is       97.9 secs

     total energy              =     -34.62235177 Ry
     estimated scf accuracy    <       0.01411407 Ry

     iteration #  5     ecut=    25.00 Ry     beta= 0.10
     Davidson diagonalization with overlap
     ethr =  1.76E-04,  avg # of iterations =  8.0

     negative rho (up, down):  6.388E-02 0.000E+00

     3D-RISM Calculation

     convergence threshold    = 1.000E-06
     iter. #     1  RMS(g-h-1)= 2.834E-04  nbox=  0
     iter. #    11  RMS(g-h-1)= 3.798E-05  nbox= 10
     iter. #    21  RMS(g-h-1)= 2.125E-05  nbox= 10
     iter. #    31  RMS(g-h-1)= 1.815E-05  nbox= 10
     iter. #    41  RMS(g-h-1)= 1.588E-05  nbox=  6
     iter. #    51  RMS(g-h-1)= 1.222E-05  nbox= 10
     iter. #    61  RMS(g-h-1)= 1.081E-05  nbox= 10
     iter. #    71  RMS(g-h-1)= 9.153E-06  nbox= 10
     iter. #    81  RMS(g-h-1)= 7.816E-06  nbox= 10
     iter. #    91  RMS(g-h-1)= 7.492E-06  nbox=  9
     iter. #   101  RMS(g-h-1)= 7.173E-06  nbox=  3
     iter. #   111  RMS(g-h-1)= 6.829E-06  nbox= 10
     iter. #   121  RMS(g-h-1)= 6.493E-06  nbox=  7
     iter. #   131  RMS(g-h-1)= 6.031E-06  nbox= 10
     iter. #   141  RMS(g-h-1)= 5.709E-06  nbox= 10
     iter. #   151  RMS(g-h-1)= 5.367E-06  nbox=  5
     iter. #   161  RMS(g-h-1)= 5.143E-06  nbox= 10
     iter. #   171  RMS(g-h-1)= 4.961E-06  nbox=  9
     iter. #   181  RMS(g-h-1)= 4.827E-06  nbox=  3
     iter. #   191  RMS(g-h-1)= 4.668E-06  nbox= 10
     iter. #   201  RMS(g-h-1)= 4.503E-06  nbox=  7
     iter. #   211  RMS(g-h-1)= 4.324E-06  nbox= 10
     iter. #   221  RMS(g-h-1)= 4.165E-06  nbox= 10
     iter. #   231  RMS(g-h-1)= 4.113E-06  nbox=  5
     iter. #   241  RMS(g-h-1)= 3.998E-06  nbox= 10
     iter. #   251  RMS(g-h-1)= 3.879E-06  nbox=  9
     iter. #   261  RMS(g-h-1)= 3.795E-06  nbox=  3
     iter. #   271  RMS(g-h-1)= 3.744E-06  nbox= 10
     iter. #   281  RMS(g-h-1)= 3.715E-06  nbox=  7
     iter. #   291  RMS(g-h-1)= 3.677E-06  nbox= 10
     iter. #   301  RMS(g-h-1)= 3.591E-06  nbox= 10
     iter. #   311  RMS(g-h-1)= 3.500E-06  nbox=  5
     iter. #   321  RMS(g-h-1)= 3.361E-06  nbox= 10
     iter. #   331  RMS(g-h-1)= 3.269E-06  nbox=  9
     iter. #   341  RMS(g-h-1)= 3.236E-06  nbox=  3
     iter. #   351  RMS(g-h-1)= 3.185E-06  nbox= 10
     iter. #   361  RMS(g-h-1)= 3.126E-06  nbox=  7
     iter. #   371  RMS(g-h-1)= 3.075E-06  nbox= 10
     iter. #   381  RMS(g-h-1)= 3.016E-06  nbox= 10
     iter. #   391  RMS(g-h-1)= 2.984E-06  nbox=  5
     iter. #   401  RMS(g-h-1)= 2.961E-06  nbox= 10
     iter. #   411  RMS(g-h-1)= 2.944E-06  nbox=  9
     iter. #   421  RMS(g-h-1)= 2.933E-06  nbox=  3
     iter. #   431  RMS(g-h-1)= 2.917E-06  nbox= 10
     iter. #   441  RMS(g-h-1)= 2.861E-06  nbox=  7
     iter. #   451  RMS(g-h-1)= 2.820E-06  nbox= 10
     iter. #   461  RMS(g-h-1)= 2.786E-06  nbox= 10
     iter. #   471  RMS(g-h-1)= 2.812E-06  nbox=  5
     iter. #   481  RMS(g-h-1)= 2.731E-06  nbox= 10
     iter. #   491  RMS(g-h-1)= 2.716E-06  nbox=  9
     iter. #   501  RMS(g-h-1)= 2.687E-06  nbox=  3
     iter. #   511  RMS(g-h-1)= 2.674E-06  nbox= 10
     iter. #   521  RMS(g-h-1)= 2.635E-06  nbox=  7
     iter. #   531  RMS(g-h-1)= 2.612E-06  nbox= 10
     iter. #   541  RMS(g-h-1)= 2.579E-06  nbox= 10
     iter. #   551  RMS(g-h-1)= 2.556E-06  nbox=  5
     iter. #   561  RMS(g-h-1)= 2.500E-06  nbox= 10
     iter. #   571  RMS(g-h-1)= 2.468E-06  nbox=  9
     iter. #   581  RMS(g-h-1)= 2.429E-06  nbox=  3
     iter. #   591  RMS(g-h-1)= 2.403E-06  nbox= 10
     iter. #   601  RMS(g-h-1)= 2.382E-06  nbox=  7
     iter. #   611  RMS(g-h-1)= 2.371E-06  nbox= 10
     iter. #   621  RMS(g-h-1)= 2.358E-06  nbox= 10
     iter. #   631  RMS(g-h-1)= 2.351E-06  nbox=  5
     iter. #   641  RMS(g-h-1)= 2.339E-06  nbox= 10
     iter. #   651  RMS(g-h-1)= 2.327E-06  nbox=  9
     iter. #   661  RMS(g-h-1)= 2.295E-06  nbox=  3
     iter. #   671  RMS(g-h-1)= 2.268E-06  nbox= 10
     iter. #   681  RMS(g-h-1)= 2.259E-06  nbox=  7
     iter. #   691  RMS(g-h-1)= 2.223E-06  nbox= 10
     iter. #   701  RMS(g-h-1)= 2.187E-06  nbox= 10
     iter. #   711  RMS(g-h-1)= 2.158E-06  nbox=  5
     iter. #   721  RMS(g-h-1)= 2.127E-06  nbox= 10
     iter. #   731  RMS(g-h-1)= 2.105E-06  nbox=  9
     iter. #   741  RMS(g-h-1)= 2.067E-06  nbox=  3
     iter. #   751  RMS(g-h-1)= 2.041E-06  nbox= 10
     iter. #   761  RMS(g-h-1)= 2.020E-06  nbox=  7
     iter. #   771  RMS(g-h-1)= 1.997E-06  nbox= 10
     iter. #   781  RMS(g-h-1)= 1.959E-06  nbox= 10
     iter. #   791  RMS(g-h-1)= 1.945E-06  nbox=  5
     iter. #   801  RMS(g-h-1)= 1.911E-06  nbox= 10
     iter. #   811  RMS(g-h-1)= 1.886E-06  nbox=  9
     iter. #   821  RMS(g-h-1)= 1.868E-06  nbox=  3
     iter. #   831  RMS(g-h-1)= 1.852E-06  nbox= 10
     iter. #   841  RMS(g-h-1)= 1.840E-06  nbox=  7
     iter. #   851  RMS(g-h-1)= 1.821E-06  nbox= 10
     iter. #   861  RMS(g-h-1)= 1.814E-06  nbox= 10
     iter. #   871  RMS(g-h-1)= 1.806E-06  nbox=  5
     iter. #   881  RMS(g-h-1)= 1.800E-06  nbox= 10
     iter. #   891  RMS(g-h-1)= 1.794E-06  nbox=  9
     iter. #   901  RMS(g-h-1)= 1.789E-06  nbox=  3
     iter. #   911  RMS(g-h-1)= 1.762E-06  nbox= 10
     iter. #   921  RMS(g-h-1)= 1.733E-06  nbox=  7
     iter. #   931  RMS(g-h-1)= 1.714E-06  nbox= 10
     iter. #   941  RMS(g-h-1)= 1.700E-06  nbox= 10
     iter. #   951  RMS(g-h-1)= 1.676E-06  nbox=  5
     iter. #   961  RMS(g-h-1)= 1.663E-06  nbox= 10
     iter. #   971  RMS(g-h-1)= 1.657E-06  nbox=  9
     iter. #   981  RMS(g-h-1)= 1.641E-06  nbox=  3
     iter. #   991  RMS(g-h-1)= 1.610E-06  nbox= 10
     iter. #  1001  RMS(g-h-1)= 1.589E-06  nbox=  7
     iter. #  1011  RMS(g-h-1)= 1.568E-06  nbox= 10
     iter. #  1021  RMS(g-h-1)= 1.545E-06  nbox= 10
     iter. #  1031  RMS(g-h-1)= 1.536E-06  nbox=  5
     iter. #  1041  RMS(g-h-1)= 1.520E-06  nbox= 10
     iter. #  1051  RMS(g-h-1)= 1.511E-06  nbox=  9
     iter. #  1061  RMS(g-h-1)= 1.504E-06  nbox=  3
     iter. #  1071  RMS(g-h-1)= 1.489E-06  nbox= 10
     iter. #  1081  RMS(g-h-1)= 1.484E-06  nbox=  7
     iter. #  1091  RMS(g-h-1)= 1.475E-06  nbox= 10
     iter. #  1101  RMS(g-h-1)= 1.471E-06  nbox= 10
     iter. #  1111  RMS(g-h-1)= 1.467E-06  nbox=  5
     iter. #  1121  RMS(g-h-1)= 1.463E-06  nbox= 10
     iter. #  1131  RMS(g-h-1)= 1.458E-06  nbox=  9
     iter. #  1141  RMS(g-h-1)= 1.452E-06  nbox=  3
     iter. #  1151  RMS(g-h-1)= 1.437E-06  nbox= 10
     iter. #  1161  RMS(g-h-1)= 1.425E-06  nbox=  7
     iter. #  1171  RMS(g-h-1)= 1.412E-06  nbox= 10
     iter. #  1181  RMS(g-h-1)= 1.404E-06  nbox= 10
     iter. #  1191  RMS(g-h-1)= 1.397E-06  nbox=  5
     iter. #  1201  RMS(g-h-1)= 1.391E-06  nbox= 10
     iter. #  1211  RMS(g-h-1)= 1.389E-06  nbox=  9
     iter. #  1221  RMS(g-h-1)= 1.387E-06  nbox=  3
     iter. #  1231  RMS(g-h-1)= 1.380E-06  nbox= 10
     iter. #  1241  RMS(g-h-1)= 1.374E-06  nbox=  7
     iter. #  1251  RMS(g-h-1)= 1.365E-06  nbox= 10
     iter. #  1261  RMS(g-h-1)= 1.360E-06  nbox= 10
     iter. #  1271  RMS(g-h-1)= 1.355E-06  nbox=  5
     iter. #  1281  RMS(g-h-1)= 1.344E-06  nbox= 10
     iter. #  1291  RMS(g-h-1)= 1.335E-06  nbox=  9
     iter. #  1301  RMS(g-h-1)= 1.330E-06  nbox=  3
     iter. #  1311  RMS(g-h-1)= 1.325E-06  nbox= 10
     iter. #  1321  RMS(g-h-1)= 1.322E-06  nbox=  7
     iter. #  1331  RMS(g-h-1)= 1.318E-06  nbox= 10
     iter. #  1341  RMS(g-h-1)= 1.312E-06  nbox= 10
     iter. #  1351  RMS(g-h-1)= 1.305E-06  nbox=  5
     iter. #  1361  RMS(g-h-1)= 1.295E-06  nbox= 10
     iter. #  1371  RMS(g-h-1)= 1.282E-06  nbox=  9
     iter. #  1381  RMS(g-h-1)= 1.272E-06  nbox=  3
     iter. #  1391  RMS(g-h-1)= 1.251E-06  nbox= 10
     iter. #  1401  RMS(g-h-1)= 1.243E-06  nbox=  7
     iter. #  1411  RMS(g-h-1)= 1.233E-06  nbox= 10
     iter. #  1421  RMS(g-h-1)= 1.224E-06  nbox= 10
     iter. #  1431  RMS(g-h-1)= 1.218E-06  nbox=  5
     iter. #  1441  RMS(g-h-1)= 1.213E-06  nbox= 10
     iter. #  1451  RMS(g-h-1)= 1.210E-06  nbox=  9
     iter. #  1461  RMS(g-h-1)= 1.206E-06  nbox=  3
     iter. #  1471  RMS(g-h-1)= 1.203E-06  nbox= 10
     iter. #  1481  RMS(g-h-1)= 1.200E-06  nbox=  7
     iter. #  1491  RMS(g-h-1)= 1.196E-06  nbox= 10
     iter. #  1501  RMS(g-h-1)= 1.191E-06  nbox= 10
     iter. #  1511  RMS(g-h-1)= 1.186E-06  nbox=  5
     iter. #  1521  RMS(g-h-1)= 1.181E-06  nbox= 10
     iter. #  1531  RMS(g-h-1)= 1.176E-06  nbox=  9
     iter. #  1541  RMS(g-h-1)= 1.171E-06  nbox=  3
     iter. #  1551  RMS(g-h-1)= 1.161E-06  nbox= 10
     iter. #  1561  RMS(g-h-1)= 1.154E-06  nbox=  7
     iter. #  1571  RMS(g-h-1)= 1.144E-06  nbox= 10
     iter. #  1581  RMS(g-h-1)= 1.137E-06  nbox= 10
     iter. #  1591  RMS(g-h-1)= 1.134E-06  nbox=  5
     iter. #  1601  RMS(g-h-1)= 1.130E-06  nbox= 10
     iter. #  1611  RMS(g-h-1)= 1.127E-06  nbox=  9
     iter. #  1621  RMS(g-h-1)= 1.125E-06  nbox=  3
     iter. #  1631  RMS(g-h-1)= 1.123E-06  nbox= 10
     iter. #  1641  RMS(g-h-1)= 1.122E-06  nbox=  7
     iter. #  1651  RMS(g-h-1)= 1.119E-06  nbox= 10
     iter. #  1661  RMS(g-h-1)= 1.115E-06  nbox= 10
     iter. #  1671  RMS(g-h-1)= 1.113E-06  nbox=  5
     iter. #  1681  RMS(g-h-1)= 1.105E-06  nbox= 10
     iter. #  1691  RMS(g-h-1)= 1.091E-06  nbox=  9
     iter. #  1701  RMS(g-h-1)= 1.075E-06  nbox=  3
     iter. #  1711  RMS(g-h-1)= 1.063E-06  nbox= 10
     iter. #  1721  RMS(g-h-1)= 1.060E-06  nbox=  7
     iter. #  1731  RMS(g-h-1)= 1.054E-06  nbox= 10
     iter. #  1741  RMS(g-h-1)= 1.040E-06  nbox= 10
     iter. #  1751  RMS(g-h-1)= 1.034E-06  nbox=  5
     iter. #  1761  RMS(g-h-1)= 1.026E-06  nbox= 10
     iter. #  1771  RMS(g-h-1)= 1.018E-06  nbox=  9
     iter. #  1781  RMS(g-h-1)= 1.015E-06  nbox=  3
     iter. #  1791  RMS(g-h-1)= 1.009E-06  nbox= 10
     iter. #  1801  RMS(g-h-1)= 1.004E-06  nbox=  7
     iter. #  1809  RMS(g-h-1)= 1.000E-06  nbox= 10

     End of 3D-RISM calculation


     convergence has been achieved in  1809 iterations


     solvent charge   -0.00000, renormalised to   -0.00000

     Total number of solvent
     H2O          267.416254
     K+             4.817713
     OH-            4.817715

     Total charge of solvent
     H2O            0.000000 e
     K+             4.817713 e
     OH-           -4.817715 e
     Total         -0.000002 e

     Chemical potential of solvation
     H2O        Closure     -0.288637E+01 kcal/mol
                GaussFluct  -0.617541E+01 kcal/mol
     K+         Closure     -0.221135E+01 kcal/mol
                GaussFluct  -0.223671E+01 kcal/mol
     OH-        Closure      0.831792E+00 kcal/mol
                GaussFluct   0.789233E+00 kcal/mol
     Total      Closure     -0.426592E+01 kcal/mol
                GaussFluct  -0.762289E+01 kcal/mol


     total cpu time spent up to now is      444.4 secs

     total energy              =     -34.62347496 Ry
     estimated scf accuracy    <       0.00038952 Ry

     iteration #  6     ecut=    25.00 Ry     beta= 0.10
     Davidson diagonalization with overlap
     ethr =  4.87E-06,  avg # of iterations = 16.0

     negative rho (up, down):  5.530E-02 0.000E+00

     3D-RISM Calculation

     convergence threshold    = 1.000E-06
     iter. #     1  RMS(g-h-1)= 9.208E-04  nbox=  0
     iter. #    11  RMS(g-h-1)= 1.120E-04  nbox= 10
     iter. #    21  RMS(g-h-1)= 5.617E-05  nbox= 10
     iter. #    31  RMS(g-h-1)= 3.401E-05  nbox= 10
     iter. #    41  RMS(g-h-1)= 2.418E-05  nbox= 10
     iter. #    51  RMS(g-h-1)= 1.855E-05  nbox= 10
     iter. #    61  RMS(g-h-1)= 1.569E-05  nbox= 10
     iter. #    71  RMS(g-h-1)= 1.387E-05  nbox= 10
     iter. #    81  RMS(g-h-1)= 9.841E-06  nbox=  7
     iter. #    91  RMS(g-h-1)= 6.691E-06  nbox= 10
     iter. #   101  RMS(g-h-1)= 5.210E-06  nbox= 10
     iter. #   111  RMS(g-h-1)= 3.114E-06  nbox= 10
     iter. #   121  RMS(g-h-1)= 2.351E-06  nbox= 10
     iter. #   131  RMS(g-h-1)= 2.010E-06  nbox= 10
     iter. #   141  RMS(g-h-1)= 1.845E-06  nbox=  2
     iter. #   151  RMS(g-h-1)= 1.571E-06  nbox= 10
     iter. #   161  RMS(g-h-1)= 1.509E-06  nbox=  6
     iter. #   171  RMS(g-h-1)= 1.461E-06  nbox= 10
     iter. #   181  RMS(g-h-1)= 1.427E-06  nbox= 10
     iter. #   191  RMS(g-h-1)= 1.402E-06  nbox=  4
     iter. #   201  RMS(g-h-1)= 1.339E-06  nbox= 10
     iter. #   211  RMS(g-h-1)= 1.280E-06  nbox=  8
     iter. #   221  RMS(g-h-1)= 1.247E-06  nbox=  2
     iter. #   231  RMS(g-h-1)= 1.224E-06  nbox= 10
     iter. #   241  RMS(g-h-1)= 1.210E-06  nbox=  6
     iter. #   251  RMS(g-h-1)= 1.193E-06  nbox= 10
     iter. #   261  RMS(g-h-1)= 1.178E-06  nbox= 10
     iter. #   271  RMS(g-h-1)= 1.162E-06  nbox=  4
     iter. #   281  RMS(g-h-1)= 1.147E-06  nbox= 10
     iter. #   291  RMS(g-h-1)= 1.141E-06  nbox=  8
     iter. #   301  RMS(g-h-1)= 1.137E-06  nbox=  2
     iter. #   311  RMS(g-h-1)= 1.128E-06  nbox= 10
     iter. #   321  RMS(g-h-1)= 1.124E-06  nbox=  6
     iter. #   331  RMS(g-h-1)= 1.121E-06  nbox= 10
     iter. #   341  RMS(g-h-1)= 1.116E-06  nbox= 10
     iter. #   351  RMS(g-h-1)= 1.105E-06  nbox=  4
     iter. #   361  RMS(g-h-1)= 1.088E-06  nbox= 10
     iter. #   371  RMS(g-h-1)= 1.076E-06  nbox=  8
     iter. #   381  RMS(g-h-1)= 1.068E-06  nbox=  2
     iter. #   391  RMS(g-h-1)= 1.062E-06  nbox= 10
     iter. #   401  RMS(g-h-1)= 1.057E-06  nbox=  6
     iter. #   411  RMS(g-h-1)= 1.054E-06  nbox= 10
     iter. #   421  RMS(g-h-1)= 1.053E-06  nbox= 10
     iter. #   431  RMS(g-h-1)= 1.051E-06  nbox=  4
     iter. #   441  RMS(g-h-1)= 1.048E-06  nbox= 10
     iter. #   451  RMS(g-h-1)= 1.038E-06  nbox=  8
     iter. #   461  RMS(g-h-1)= 1.032E-06  nbox=  2
     iter. #   471  RMS(g-h-1)= 1.024E-06  nbox= 10
     iter. #   481  RMS(g-h-1)= 1.014E-06  nbox=  6
     iter. #   491  RMS(g-h-1)= 1.009E-06  nbox= 10
     iter. #   501  RMS(g-h-1)= 1.001E-06  nbox= 10
     iter. #   502  RMS(g-h-1)= 9.997E-07  nbox= 10

     End of 3D-RISM calculation


     convergence has been achieved in   502 iterations


     solvent charge   -0.00000, renormalised to   -0.00000

     Total number of solvent
     H2O          267.416255
     K+             4.817714
     OH-            4.817714

     Total charge of solvent
     H2O            0.000001 e
     K+             4.817714 e
     OH-           -4.817716 e
     Total         -0.000001 e

     Chemical potential of solvation
     H2O        Closure     -0.329542E+01 kcal/mol
                GaussFluct  -0.659963E+01 kcal/mol
     K+         Closure     -0.228860E+01 kcal/mol
                GaussFluct  -0.231423E+01 kcal/mol
     OH-        Closure      0.784655E+00 kcal/mol
                GaussFluct   0.741971E+00 kcal/mol
     Total      Closure     -0.479936E+01 kcal/mol
                GaussFluct  -0.817189E+01 kcal/mol


     total cpu time spent up to now is      542.6 secs

     total energy              =     -34.62360539 Ry
     estimated scf accuracy    <       0.00027375 Ry

     iteration #  7     ecut=    25.00 Ry     beta= 0.10
     Davidson diagonalization with overlap
     ethr =  3.42E-06,  avg # of iterations =  2.0

     negative rho (up, down):  4.822E-02 0.000E+00

     3D-RISM Calculation

     convergence threshold    = 1.000E-06
     iter. #     1  RMS(g-h-1)= 7.174E-04  nbox=  0
     iter. #    11  RMS(g-h-1)= 8.383E-05  nbox= 10
     iter. #    21  RMS(g-h-1)= 3.510E-05  nbox= 10
     iter. #    31  RMS(g-h-1)= 2.309E-05  nbox= 10
     iter. #    41  RMS(g-h-1)= 1.679E-05  nbox= 10
     iter. #    51  RMS(g-h-1)= 1.319E-05  nbox= 10
     iter. #    61  RMS(g-h-1)= 1.060E-05  nbox= 10
     iter. #    71  RMS(g-h-1)= 8.261E-06  nbox=  6
     iter. #    81  RMS(g-h-1)= 6.192E-06  nbox= 10
     iter. #    91  RMS(g-h-1)= 4.194E-06  nbox= 10
     iter. #   101  RMS(g-h-1)= 3.266E-06  nbox= 10
     iter. #   111  RMS(g-h-1)= 2.681E-06  nbox= 10
     iter. #   121  RMS(g-h-1)= 2.464E-06  nbox= 10
     iter. #   131  RMS(g-h-1)= 2.073E-06  nbox=  8
     iter. #   141  RMS(g-h-1)= 1.845E-06  nbox=  2
     iter. #   151  RMS(g-h-1)= 1.725E-06  nbox= 10
     iter. #   161  RMS(g-h-1)= 1.614E-06  nbox=  6
     iter. #   171  RMS(g-h-1)= 1.532E-06  nbox= 10
     iter. #   181  RMS(g-h-1)= 1.483E-06  nbox= 10
     iter. #   191  RMS(g-h-1)= 1.446E-06  nbox=  4
     iter. #   201  RMS(g-h-1)= 1.392E-06  nbox= 10
     iter. #   211  RMS(g-h-1)= 1.355E-06  nbox=  8
     iter. #   221  RMS(g-h-1)= 1.313E-06  nbox=  2
     iter. #   231  RMS(g-h-1)= 1.283E-06  nbox= 10
     iter. #   241  RMS(g-h-1)= 1.266E-06  nbox=  6
     iter. #   251  RMS(g-h-1)= 1.251E-06  nbox= 10
     iter. #   261  RMS(g-h-1)= 1.233E-06  nbox= 10
     iter. #   271  RMS(g-h-1)= 1.222E-06  nbox=  4
     iter. #   281  RMS(g-h-1)= 1.206E-06  nbox= 10
     iter. #   291  RMS(g-h-1)= 1.195E-06  nbox=  8
     iter. #   301  RMS(g-h-1)= 1.185E-06  nbox=  2
     iter. #   311  RMS(g-h-1)= 1.168E-06  nbox= 10
     iter. #   321  RMS(g-h-1)= 1.157E-06  nbox=  6
     iter. #   331  RMS(g-h-1)= 1.142E-06  nbox= 10
     iter. #   341  RMS(g-h-1)= 1.169E-06  nbox= 10
     iter. #   351  RMS(g-h-1)= 1.127E-06  nbox=  4
     iter. #   361  RMS(g-h-1)= 1.120E-06  nbox= 10
     iter. #   371  RMS(g-h-1)= 1.116E-06  nbox=  8
     iter. #   381  RMS(g-h-1)= 1.114E-06  nbox=  2
     iter. #   391  RMS(g-h-1)= 1.111E-06  nbox= 10
     iter. #   401  RMS(g-h-1)= 1.108E-06  nbox=  6
     iter. #   411  RMS(g-h-1)= 1.104E-06  nbox= 10
     iter. #   421  RMS(g-h-1)= 1.099E-06  nbox= 10
     iter. #   431  RMS(g-h-1)= 1.090E-06  nbox=  4
     iter. #   441  RMS(g-h-1)= 1.072E-06  nbox= 10
     iter. #   451  RMS(g-h-1)= 1.060E-06  nbox=  8
     iter. #   461  RMS(g-h-1)= 1.055E-06  nbox=  2
     iter. #   471  RMS(g-h-1)= 1.049E-06  nbox= 10
     iter. #   481  RMS(g-h-1)= 1.042E-06  nbox=  6
     iter. #   491  RMS(g-h-1)= 1.035E-06  nbox= 10
     iter. #   501  RMS(g-h-1)= 1.032E-06  nbox= 10
     iter. #   511  RMS(g-h-1)= 1.030E-06  nbox=  4
     iter. #   521  RMS(g-h-1)= 1.026E-06  nbox= 10
     iter. #   531  RMS(g-h-1)= 1.023E-06  nbox=  8
     iter. #   541  RMS(g-h-1)= 1.019E-06  nbox=  2
     iter. #   551  RMS(g-h-1)= 1.017E-06  nbox= 10
     iter. #   561  RMS(g-h-1)= 1.015E-06  nbox=  6
     iter. #   571  RMS(g-h-1)= 1.013E-06  nbox= 10
     iter. #   581  RMS(g-h-1)= 1.011E-06  nbox= 10
     iter. #   591  RMS(g-h-1)= 1.007E-06  nbox=  4
     iter. #   601  RMS(g-h-1)= 1.005E-06  nbox= 10
     iter. #   611  RMS(g-h-1)= 1.004E-06  nbox=  8
     iter. #   621  RMS(g-h-1)= 1.002E-06  nbox=  2
     iter. #   627  RMS(g-h-1)= 9.995E-07  nbox=  8

     End of 3D-RISM calculation


     convergence has been achieved in   627 iterations


     solvent charge    0.00000, renormalised to   -0.00000

     Total number of solvent
     H2O          267.416254
     K+             4.817715
     OH-            4.817715

     Total charge of solvent
     H2O            0.000000 e
     K+             4.817715 e
     OH-           -4.817712 e
     Total          0.000003 e

     Chemical potential of solvation
     H2O        Closure     -0.379934E+01 kcal/mol
                GaussFluct  -0.711994E+01 kcal/mol
     K+         Closure     -0.236236E+01 kcal/mol
                GaussFluct  -0.238830E+01 kcal/mol
     OH-        Closure      0.706945E+00 kcal/mol
                GaussFluct   0.664135E+00 kcal/mol
     Total      Closure     -0.545476E+01 kcal/mol
                GaussFluct  -0.884411E+01 kcal/mol


     total cpu time spent up to now is      664.1 secs

     total energy              =     -34.62359721 Ry
     estimated scf accuracy    <       0.00037014 Ry

     iteration #  8     ecut=    25.00 Ry     beta= 0.10
     Davidson diagonalization with overlap
     ethr =  3.42E-06,  avg # of iterations =  2.0

     negative rho (up, down):  4.288E-02 0.000E+00

     3D-RISM Calculation

     convergence threshold    = 1.000E-06
     iter. #     1  RMS(g-h-1)= 1.096E-04  nbox=  0
     iter. #    11  RMS(g-h-1)= 1.377E-05  nbox= 10
     iter. #    21  RMS(g-h-1)= 5.393E-06  nbox= 10
     iter. #    31  RMS(g-h-1)= 3.278E-06  nbox= 10
     iter. #    41  RMS(g-h-1)= 2.943E-06  nbox= 10
     iter. #    51  RMS(g-h-1)= 2.168E-06  nbox= 10
     iter. #    61  RMS(g-h-1)= 1.911E-06  nbox= 10
     iter. #    71  RMS(g-h-1)= 1.770E-06  nbox=  3
     iter. #    81  RMS(g-h-1)= 1.303E-06  nbox= 10
     iter. #    91  RMS(g-h-1)= 1.212E-06  nbox=  3
     iter. #   101  RMS(g-h-1)= 1.121E-06  nbox= 10
     iter. #   111  RMS(g-h-1)= 1.071E-06  nbox=  7
     iter. #   121  RMS(g-h-1)= 1.044E-06  nbox= 10
     iter. #   131  RMS(g-h-1)= 1.038E-06  nbox= 10
     iter. #   141  RMS(g-h-1)= 1.035E-06  nbox=  5
     iter. #   151  RMS(g-h-1)= 1.032E-06  nbox= 10
     iter. #   161  RMS(g-h-1)= 1.029E-06  nbox=  9
     iter. #   171  RMS(g-h-1)= 1.021E-06  nbox=  3
     iter. #   181  RMS(g-h-1)= 1.015E-06  nbox= 10
     iter. #   191  RMS(g-h-1)= 1.005E-06  nbox=  7
     iter. #   195  RMS(g-h-1)= 9.990E-07  nbox= 10

     End of 3D-RISM calculation


     convergence has been achieved in   195 iterations


     solvent charge   -0.00001, renormalised to   -0.00000

     Total number of solvent
     H2O          267.416254
     K+             4.817712
     OH-            4.817713

     Total charge of solvent
     H2O           -0.000001 e
     K+             4.817712 e
     OH-           -4.817721 e
     Total         -0.000011 e

     Chemical potential of solvation
     H2O        Closure     -0.387123E+01 kcal/mol
                GaussFluct  -0.719428E+01 kcal/mol
     K+         Closure     -0.237462E+01 kcal/mol
                GaussFluct  -0.240060E+01 kcal/mol
     OH-        Closure      0.697255E+00 kcal/mol
                GaussFluct   0.654421E+00 kcal/mol
     Total      Closure     -0.554859E+01 kcal/mol
                GaussFluct  -0.894046E+01 kcal/mol


     total cpu time spent up to now is      702.9 secs

     total energy              =     -34.62366741 Ry
     estimated scf accuracy    <       0.00000418 Ry

     iteration #  9     ecut=    25.00 Ry     beta= 0.10
     Davidson diagonalization with overlap
     ethr =  5.22E-08,  avg # of iterations =  2.0

     negative rho (up, down):  3.882E-02 0.000E+00

     3D-RISM Calculation

     convergence threshold    = 1.000E-06
     iter. #     1  RMS(g-h-1)= 1.082E-04  nbox=  0
     iter. #    11  RMS(g-h-1)= 1.458E-05  nbox= 10
     iter. #    21  RMS(g-h-1)= 5.207E-06  nbox= 10
     iter. #    31  RMS(g-h-1)= 3.816E-06  nbox= 10
     iter. #    41  RMS(g-h-1)= 2.520E-06  nbox= 10
     iter. #    51  RMS(g-h-1)= 1.855E-06  nbox= 10
     iter. #    61  RMS(g-h-1)= 1.626E-06  nbox= 10
     iter. #    71  RMS(g-h-1)= 1.331E-06  nbox= 10
     iter. #    81  RMS(g-h-1)= 1.197E-06  nbox=  4
     iter. #    91  RMS(g-h-1)= 1.037E-06  nbox= 10
     iter. #   101  RMS(g-h-1)= 1.007E-06  nbox=  8
     iter. #   104  RMS(g-h-1)= 9.976E-07  nbox= 10

     End of 3D-RISM calculation


     convergence has been achieved in   104 iterations


     solvent charge   -0.00007, renormalised to   -0.00000

     Total number of solvent
     H2O          267.416254
     K+             4.817702
     OH-            4.817714

     Total charge of solvent
     H2O           -0.000002 e
     K+             4.817702 e
     OH-           -4.817772 e
     Total         -0.000072 e

     Chemical potential of solvation
     H2O        Closure     -0.380229E+01 kcal/mol
                GaussFluct  -0.712315E+01 kcal/mol
     K+         Closure     -0.236215E+01 kcal/mol
                GaussFluct  -0.238809E+01 kcal/mol
     OH-        Closure      0.706427E+00 kcal/mol
                GaussFluct   0.663608E+00 kcal/mol
     Total      Closure     -0.545801E+01 kcal/mol
                GaussFluct  -0.884763E+01 kcal/mol


     total cpu time spent up to now is      724.2 secs

     total energy              =     -34.62367497 Ry
     estimated scf accuracy    <       0.00000395 Ry

     iteration # 10     ecut=    25.00 Ry     beta= 0.10
     Davidson diagonalization with overlap
     ethr =  4.94E-08,  avg # of iterations =  1.0

     negative rho (up, down):  3.470E-02 0.000E+00

     3D-RISM Calculation

     convergence threshold    = 1.000E-06
     iter. #     1  RMS(g-h-1)= 2.996E-05  nbox=  0
     iter. #    11  RMS(g-h-1)= 2.912E-06  nbox= 10
     iter. #    21  RMS(g-h-1)= 1.490E-06  nbox= 10
     iter. #    31  RMS(g-h-1)= 1.270E-06  nbox= 10
     iter. #    41  RMS(g-h-1)= 1.157E-06  nbox=  2
     iter. #    51  RMS(g-h-1)= 1.043E-06  nbox= 10
     iter. #    61  RMS(g-h-1)= 1.005E-06  nbox=  6
     iter. #    62  RMS(g-h-1)= 9.986E-07  nbox=  7

     End of 3D-RISM calculation


     convergence has been achieved in    62 iterations


     solvent charge   -0.00003, renormalised to   -0.00000

     Total number of solvent
     H2O          267.416255
     K+             4.817750
     OH-            4.817710

     Total charge of solvent
     H2O           -0.000003 e
     K+             4.817750 e
     OH-           -4.817779 e
     Total         -0.000032 e

     Chemical potential of solvation
     H2O        Closure     -0.381002E+01 kcal/mol
                GaussFluct  -0.713112E+01 kcal/mol
     K+         Closure     -0.236255E+01 kcal/mol
                GaussFluct  -0.238852E+01 kcal/mol
     OH-        Closure      0.704918E+00 kcal/mol
                GaussFluct   0.662101E+00 kcal/mol
     Total      Closure     -0.546765E+01 kcal/mol
                GaussFluct  -0.885754E+01 kcal/mol


     total cpu time spent up to now is      736.7 secs

     total energy              =     -34.62367792 Ry
     estimated scf accuracy    <       0.00000225 Ry

     iteration # 11     ecut=    25.00 Ry     beta= 0.10
     Davidson diagonalization with overlap
     ethr =  2.82E-08,  avg # of iterations =  2.0

     negative rho (up, down):  5.136E-03 0.000E+00

     3D-RISM Calculation

     convergence threshold    = 1.000E-06
     iter. #     1  RMS(g-h-1)= 3.558E-05  nbox=  0
     iter. #    11  RMS(g-h-1)= 3.871E-06  nbox= 10
     iter. #    21  RMS(g-h-1)= 1.804E-06  nbox= 10
     iter. #    31  RMS(g-h-1)= 1.453E-06  nbox= 10
     iter. #    41  RMS(g-h-1)= 1.299E-06  nbox=  2
     iter. #    51  RMS(g-h-1)= 1.108E-06  nbox= 10
     iter. #    61  RMS(g-h-1)= 1.046E-06  nbox=  6
     iter. #    66  RMS(g-h-1)= 9.988E-07  nbox= 10

     End of 3D-RISM calculation


     convergence has been achieved in    66 iterations


     solvent charge   -0.00007, renormalised to   -0.00000

     Total number of solvent
     H2O          267.416255
     K+             4.817732
     OH-            4.817709

     Total charge of solvent
     H2O            0.000004 e
     K+             4.817732 e
     OH-           -4.817807 e
     Total         -0.000071 e

     Chemical potential of solvation
     H2O        Closure     -0.381977E+01 kcal/mol
                GaussFluct  -0.714104E+01 kcal/mol
     K+         Closure     -0.236335E+01 kcal/mol
                GaussFluct  -0.238932E+01 kcal/mol
     OH-        Closure      0.702849E+00 kcal/mol
                GaussFluct   0.660035E+00 kcal/mol
     Total      Closure     -0.548027E+01 kcal/mol
                GaussFluct  -0.887033E+01 kcal/mol


     total cpu time spent up to now is      750.0 secs

     End of self-consistent calculation

          k = 0.0000 0.0000 0.0000 ( 56901 PWs)   bands (ev):

   -25.1470 -12.7240  -9.4430  -7.3315  -0.8247  -0.3442  -0.1099  -0.1070
    -0.0833  -0.0802  -0.0257   0.1228   0.2239   0.2458   0.2594   0.2798
     0.3028   0.3113   0.3137   0.3186

     the Fermi energy is    -5.3675 ev

!    total energy              =     -34.62362600 Ry
     estimated scf accuracy    <       0.00000029 Ry
     smearing contrib. (-TS)   =      -0.00000000 Ry
     internal energy E=F+TS    =     -34.62362600 Ry

     The total energy is F=E-TS. E is the sum of the following terms:
     one-electron contribution =     -72.43207052 Ry
     hartree contribution      =      37.71393590 Ry
     xc contribution           =      -8.65519745 Ry
     ewald contribution        =       8.76718450 Ry
     solvation energy (RISM)   =      -0.01747843 Ry

     convergence has been achieved in  11 iterations

     Writing all to output data dir output/opt.save/ :
     XML data file, charge density, RISM restart, pseudopotentials, RISM molfiles, collected wavefunctions
 
     init_run     :     17.98s CPU     18.97s WALL (       1 calls)
     electrons    :    694.55s CPU    725.71s WALL (       1 calls)

     Called by init_run:
     wfcinit      :      0.02s CPU      0.03s WALL (       1 calls)
     potinit      :     17.43s CPU     18.36s WALL (       1 calls)
     hinit0       :      0.08s CPU      0.10s WALL (       1 calls)

     Called by electrons:
     c_bands      :      1.04s CPU      1.07s WALL (      11 calls)
     sum_band     :      0.93s CPU      1.42s WALL (      11 calls)
     v_of_rho     :      1.09s CPU      1.38s WALL (      12 calls)
     newd         :      0.68s CPU      1.18s WALL (      12 calls)
     mix_rho      :      0.19s CPU      0.23s WALL (      11 calls)

     Called by c_bands:
     init_us_2    :      0.01s CPU      0.01s WALL (      23 calls)
     regterg      :      1.02s CPU      1.05s WALL (      11 calls)

     Called by *egterg:
     rdiaghg      :      0.03s CPU      0.03s WALL (      74 calls)
     h_psi        :      0.90s CPU      0.93s WALL (      75 calls)
     s_psi        :      0.01s CPU      0.01s WALL (      75 calls)
     g_psi        :      0.00s CPU      0.00s WALL (      63 calls)

     Called by h_psi:
     h_psi:calbec :      0.01s CPU      0.02s WALL (      75 calls)
     vloc_psi     :      0.87s CPU      0.90s WALL (      75 calls)
     add_vuspsi   :      0.01s CPU      0.01s WALL (      75 calls)

     General routines
     calbec       :      0.02s CPU      0.02s WALL (      86 calls)
     fft          :      1.08s CPU      1.48s WALL (     166 calls)
     ffts         :      0.04s CPU      0.04s WALL (      23 calls)
     fftw         :      0.60s CPU      0.62s WALL (     962 calls)
     fftr         :    245.05s CPU    269.16s WALL (   45624 calls)
     interpolate  :      0.10s CPU      0.11s WALL (      12 calls)
 
     Parallel routines
     fft_scatt_xy :     36.21s CPU     37.91s WALL (   45624 calls)
     fft_scatt_yz :    102.17s CPU    119.10s WALL (   45624 calls)

     RISM routines
     1DRISM_pre   :      0.00s CPU      0.00s WALL (       1 calls)
     1DRISM_run   :      4.77s CPU      4.89s WALL (       1 calls)
     3DRISM_pre   :      0.20s CPU      0.21s WALL (       1 calls)
     3DRISM_run   :    707.55s CPU    738.11s WALL (      12 calls)
     3DRISM_vsol  :      0.07s CPU      0.11s WALL (      12 calls)
 
     PWSCF        :  11m57.87s CPU  12m30.89s WALL

 
   This run was terminated on:  17: 3:50   8Jun2024            

=------------------------------------------------------------------------------=
   JOB DONE.
=------------------------------------------------------------------------------=
