
     Program PWSCF v.7.2 starts on  4Jun2024 at 10:56: 1 

     This program is part of the open-source Quantum ESPRESSO suite
     for quantum simulation of materials; please cite
         "P. Giannozzi et al., J. Phys.:Condens. Matter 21 395502 (2009);
         "P. Giannozzi et al., J. Phys.:Condens. Matter 29 465901 (2017);
         "P. Giannozzi et al., J. Chem. Phys. 152 154105 (2020);
          URL http://www.quantum-espresso.org", 
     in publications or presentations arising from this work. More details at
     http://www.quantum-espresso.org/quote

     Parallel version (MPI), running on    16 processors

     MPI processes distributed on     1 nodes
     181797 MiB available memory on the printing compute node when the environment starts
 
     Reading input from supercell-003.in
Warning: card &CELL ignored
Warning: card / ignored

     Current dimensions of program PWSCF are:
     Max number of different atomic species (ntypx) = 10
     Max number of k-points (npk) =  40000
     Max angular momentum in pseudopotentials (lmaxx) =  4

     gamma-point specific algorithms are used
 
     R & G space division:  proc/nbgrp/npool/nimage =      16
     Subspace diagonalization in iterative solution of the eigenvalue problem:
     a serial algorithm will be used

 
     Parallelization info
     --------------------
     sticks:   dense  smooth     PW     G-vecs:    dense   smooth      PW
     Min         566     281     69                40786    14396    1790
     Max         568     286     72                40796    14402    1796
     Sum        9085    4537   1129               652671   230389   28671
 
     Using Slab Decomposition
 


     bravais-lattice index     =            0
     lattice parameter (alat)  =      18.8973  a.u.
     unit-cell volume          =    6748.3346 (a.u.)^3
     number of atoms/cell      =            3
     number of atomic types    =            2
     number of electrons       =         8.00
     number of Kohn-Sham states=            4
     kinetic-energy cutoff     =      40.0000  Ry
     charge density cutoff     =     320.0000  Ry
     scf convergence threshold =      1.0E-08
     mixing beta               =       0.3000
     number of iterations used =            8  plain     mixing
     Exchange-correlation=  SLA  PW   PBX  PBC
                           (   1   4   3   4   0   0   0)

     celldm(1)=  18.897261  celldm(2)=   0.000000  celldm(3)=   0.000000
     celldm(4)=   0.000000  celldm(5)=   0.000000  celldm(6)=   0.000000

     crystal axes: (cart. coord. in units of alat)
               a(1) = (   1.000000   0.000000   0.000000 )  
               a(2) = (   0.000000   1.000000   0.000000 )  
               a(3) = (   0.000000   0.000000   1.000000 )  

     reciprocal axes: (cart. coord. in units 2 pi/alat)
               b(1) = (  1.000000  0.000000  0.000000 )  
               b(2) = (  0.000000  1.000000  0.000000 )  
               b(3) = (  0.000000  0.000000  1.000000 )  


     PseudoPot. # 1 for O  read from file:
     /beegfs/hotpool/mano/rism/RISM_example/pseudo/o_pbe_v1.2.uspp.F.UPF
     MD5 check sum: 734c27235a0248c51dbae37a1fbe46ec
     Pseudo is Ultrasoft + core correction, Zval =  6.0
     Generated by new atomic code, or converted to UPF format
     Using radial grid of  737 points,  5 beta functions with: 
                l(1) =   0
                l(2) =   0
                l(3) =   1
                l(4) =   1
                l(5) =   2
     Q(r) pseudized with  8 coefficients,  rinner =    0.900   0.900   0.900
                                                       0.900   0.900

     PseudoPot. # 2 for H  read from file:
     /beegfs/hotpool/mano/rism/RISM_example/pseudo/h_pbe_v1.4.uspp.F.UPF
     MD5 check sum: 761ae9a214b05c3daf00ab9f6b793d6f
     Pseudo is Ultrasoft, Zval =  1.0
     Generated by new atomic code, or converted to UPF format
     Using radial grid of  615 points,  2 beta functions with: 
                l(1) =   0
                l(2) =   0
     Q(r) pseudized with  8 coefficients,  rinner =    0.700

     atomic species   valence    mass     pseudopotential
        O              6.00    15.99940     O ( 1.00)
        H              1.00     1.00794     H ( 1.00)

     No symmetry found



   Cartesian axes

     site n.     atom                  positions (alat units)
         1           O   tau(   1) = (   0.5000000   0.5000000   0.5305168  )
         2           H   tau(   2) = (   0.5007484   0.5776660   0.4698339  )
         3           H   tau(   3) = (   0.5000000   0.4230824   0.4698339  )

     number of k points=     1
                       cart. coord. in units 2pi/alat
        k(    1) = (   0.0000000   0.0000000   0.0000000), wk =   2.0000000

     Dense  grid:   326336 G-vectors     FFT dimensions: ( 108, 108, 108)

     Smooth grid:   115195 G-vectors     FFT dimensions: (  80,  80,  80)

     Estimated max dynamical RAM per process >      51.34 MB

     Estimated total dynamical RAM >     821.37 MB

     Initial potential from superposition of free atoms

     starting charge       8.0000, renormalised to       8.0000

     negative rho (up, down):  1.419E-04 0.000E+00
     Starting wfcs are    6 randomized atomic wfcs

     total cpu time spent up to now is        0.6 secs

     Self-consistent Calculation

     iteration #  1     ecut=    40.00 Ry     beta= 0.30
     Davidson diagonalization with overlap
     ethr =  1.00E-02,  avg # of iterations =  2.0

     negative rho (up, down):  5.563E-04 0.000E+00

     total cpu time spent up to now is        0.7 secs

     total energy              =     -34.61606191 Ry
     estimated scf accuracy    <       0.46280823 Ry

     iteration #  2     ecut=    40.00 Ry     beta= 0.30
     Davidson diagonalization with overlap
     ethr =  5.79E-03,  avg # of iterations =  2.0

     negative rho (up, down):  9.836E-04 0.000E+00

     total cpu time spent up to now is        0.8 secs

     total energy              =     -34.66331037 Ry
     estimated scf accuracy    <       0.04389382 Ry

     iteration #  3     ecut=    40.00 Ry     beta= 0.30
     Davidson diagonalization with overlap
     ethr =  5.49E-04,  avg # of iterations =  2.0

     negative rho (up, down):  1.800E-03 0.000E+00

     total cpu time spent up to now is        1.0 secs

     total energy              =     -34.66576209 Ry
     estimated scf accuracy    <       0.01383872 Ry

     iteration #  4     ecut=    40.00 Ry     beta= 0.30
     Davidson diagonalization with overlap
     ethr =  1.73E-04,  avg # of iterations =  2.0

     negative rho (up, down):  1.915E-03 0.000E+00

     total cpu time spent up to now is        1.1 secs

     total energy              =     -34.66580775 Ry
     estimated scf accuracy    <       0.00641321 Ry

     iteration #  5     ecut=    40.00 Ry     beta= 0.30
     Davidson diagonalization with overlap
     ethr =  8.02E-05,  avg # of iterations =  2.0

     negative rho (up, down):  1.860E-03 0.000E+00

     total cpu time spent up to now is        1.2 secs

     total energy              =     -34.66688695 Ry
     estimated scf accuracy    <       0.00004771 Ry

     iteration #  6     ecut=    40.00 Ry     beta= 0.30
     Davidson diagonalization with overlap
     ethr =  5.96E-07,  avg # of iterations =  2.0

     negative rho (up, down):  1.857E-03 0.000E+00

     total cpu time spent up to now is        1.3 secs

     total energy              =     -34.66689488 Ry
     estimated scf accuracy    <       0.00002711 Ry

     iteration #  7     ecut=    40.00 Ry     beta= 0.30
     Davidson diagonalization with overlap
     ethr =  3.39E-07,  avg # of iterations =  2.0

     negative rho (up, down):  1.873E-03 0.000E+00

     total cpu time spent up to now is        1.4 secs

     total energy              =     -34.66689735 Ry
     estimated scf accuracy    <       0.00000342 Ry

     iteration #  8     ecut=    40.00 Ry     beta= 0.30
     Davidson diagonalization with overlap
     ethr =  4.27E-08,  avg # of iterations =  2.0

     negative rho (up, down):  1.903E-03 0.000E+00

     total cpu time spent up to now is        1.5 secs

     total energy              =     -34.66689668 Ry
     estimated scf accuracy    <       0.00000786 Ry

     iteration #  9     ecut=    40.00 Ry     beta= 0.30
     Davidson diagonalization with overlap
     ethr =  4.27E-08,  avg # of iterations =  1.0

     negative rho (up, down):  1.931E-03 0.000E+00

     total cpu time spent up to now is        1.6 secs

     total energy              =     -34.66689607 Ry
     estimated scf accuracy    <       0.00000269 Ry

     iteration # 10     ecut=    40.00 Ry     beta= 0.30
     Davidson diagonalization with overlap
     ethr =  3.36E-08,  avg # of iterations =  2.0

     negative rho (up, down):  1.950E-03 0.000E+00

     total cpu time spent up to now is        1.7 secs

     total energy              =     -34.66689634 Ry
     estimated scf accuracy    <       0.00000020 Ry

     iteration # 11     ecut=    40.00 Ry     beta= 0.30
     Davidson diagonalization with overlap
     ethr =  2.46E-09,  avg # of iterations =  2.0

     negative rho (up, down):  1.999E-03 0.000E+00

     total cpu time spent up to now is        1.8 secs

     End of self-consistent calculation

          k = 0.0000 0.0000 0.0000 ( 14336 PWs)   bands (ev):

   -25.0150 -12.8280  -9.2135  -7.0970

     highest occupied level (ev):    -7.0970

!    total energy              =     -34.66689647 Ry
     estimated scf accuracy    <          4.8E-09 Ry

     The total energy is the sum of the following terms:
     one-electron contribution =     -63.06061584 Ry
     hartree contribution      =      33.03562741 Ry
     xc contribution           =      -8.67258535 Ry
     ewald contribution        =       4.03067732 Ry

     convergence has been achieved in  11 iterations

     negative rho (up, down):  1.999E-03 0.000E+00

     Forces acting on atoms (cartesian axes, Ry/au):

     atom    1 type  1   force =     0.00008149    0.00926644   -0.00592764
     atom    2 type  2   force =    -0.00008643   -0.00964812    0.00658729
     atom    3 type  2   force =     0.00000493    0.00038167   -0.00065965
     The non-local contrib.  to forces
     atom    1 type  1   force =     0.01335227    0.00159285   -2.17445646
     atom    2 type  2   force =    -0.00178148   -0.19226106    0.13859128
     atom    3 type  2   force =     0.00007197    0.19499754    0.14213425
     The ionic contribution  to forces
     atom    1 type  1   force =    -0.02616172    0.02302918    4.28108207
     atom    2 type  2   force =     0.02728066    2.94506435   -2.12114237
     atom    3 type  2   force =    -0.00111894   -2.96809353   -2.15993970
     The local contribution  to forces
     atom    1 type  1   force =     0.01296416   -0.01524825   -2.12438265
     atom    2 type  2   force =    -0.02558532   -2.76244514    1.98913493
     atom    3 type  2   force =     0.00105217    2.77347194    2.01714137
     The core correction contribution to forces
     atom    1 type  1   force =    -0.00007253   -0.00008839    0.01174842
     atom    2 type  2   force =     0.00000000    0.00000000    0.00000000
     atom    3 type  2   force =     0.00000000    0.00000000    0.00000000
     The Hubbard contrib.    to forces
     atom    1 type  1   force =     0.00000000    0.00000000    0.00000000
     atom    2 type  2   force =     0.00000000    0.00000000    0.00000000
     atom    3 type  2   force =     0.00000000    0.00000000    0.00000000
     The SCF correction term to forces
     atom    1 type  1   force =    -0.00000042   -0.00001940    0.00009247
     atom    2 type  2   force =    -0.00000002   -0.00000672    0.00001494
     atom    3 type  2   force =     0.00000001    0.00000526    0.00001592

     Total force =     0.016065     Total SCF correction =     0.000097

     Writing all to output data dir output/opt.save/
 
     init_run     :      0.21s CPU      0.29s WALL (       1 calls)
     electrons    :      1.13s CPU      1.17s WALL (       1 calls)
     forces       :      0.09s CPU      0.09s WALL (       1 calls)

     Called by init_run:
     wfcinit      :      0.05s CPU      0.06s WALL (       1 calls)
     potinit      :      0.04s CPU      0.06s WALL (       1 calls)
     hinit0       :      0.03s CPU      0.06s WALL (       1 calls)

     Called by electrons:
     c_bands      :      0.06s CPU      0.07s WALL (      11 calls)
     sum_band     :      0.36s CPU      0.38s WALL (      11 calls)
     v_of_rho     :      0.33s CPU      0.34s WALL (      12 calls)
     newd         :      0.33s CPU      0.35s WALL (      12 calls)
     mix_rho      :      0.06s CPU      0.06s WALL (      11 calls)

     Called by c_bands:
     init_us_2    :      0.00s CPU      0.00s WALL (      23 calls)
     init_us_2:cp :      0.00s CPU      0.00s WALL (      23 calls)
     regterg      :      0.05s CPU      0.05s WALL (      11 calls)

     Called by *egterg:
     rdiaghg      :      0.00s CPU      0.01s WALL (      32 calls)
     h_psi        :      0.09s CPU      0.10s WALL (      33 calls)
     s_psi        :      0.00s CPU      0.00s WALL (      33 calls)
     g_psi        :      0.00s CPU      0.00s WALL (      21 calls)

     Called by h_psi:
     h_psi:calbec :      0.00s CPU      0.00s WALL (      33 calls)
     vloc_psi     :      0.09s CPU      0.09s WALL (      33 calls)
     add_vuspsi   :      0.00s CPU      0.00s WALL (      33 calls)

     General routines
     calbec       :      0.00s CPU      0.00s WALL (      48 calls)
     fft          :      0.30s CPU      0.32s WALL (     139 calls)
     ffts         :      0.01s CPU      0.01s WALL (      23 calls)
     fftw         :      0.08s CPU      0.08s WALL (     154 calls)
     interpolate  :      0.03s CPU      0.03s WALL (      12 calls)
 
     Parallel routines
 
     PWSCF        :      1.65s CPU      1.90s WALL

 
   This run was terminated on:  10:56: 3   4Jun2024            

=------------------------------------------------------------------------------=
   JOB DONE.
=------------------------------------------------------------------------------=
