
     Program PWSCF v.7.3.1 starts on  8Jun2024 at 17:47:34 

     This program is part of the open-source Quantum ESPRESSO suite
     for quantum simulation of materials; please cite
         "P. Giannozzi et al., J. Phys.:Condens. Matter 21 395502 (2009);
         "P. Giannozzi et al., J. Phys.:Condens. Matter 29 465901 (2017);
         "P. Giannozzi et al., J. Chem. Phys. 152 154105 (2020);
          URL http://www.quantum-espresso.org", 
     in publications or presentations arising from this work. More details at
     http://www.quantum-espresso.org/quote

     Parallel version (MPI), running on    16 processors

     MPI processes distributed on     1 nodes
     183033 MiB available memory on the printing compute node when the environment starts
 
     Reading input from espresso.pwi
Warning: card &CELL ignored
Warning: card / ignored
Warning: card &FCP ignored
Warning: card / ignored
Warning: card &RISM ignored
Warning: card / ignored

     Current dimensions of program PWSCF are:
     Max number of different atomic species (ntypx) = 10
     Max number of k-points (npk) =  40000
     Max angular momentum in pseudopotentials (lmaxx) =  4

     gamma-point specific algorithms are used
 
     R & G space division:  proc/nbgrp/npool/nimage =      16
     Subspace diagonalization in iterative solution of the eigenvalue problem:
     a serial algorithm will be used

 
     Parallelization info
     --------------------
     sticks:   dense  smooth     PW     G-vecs:    dense   smooth      PW
     Min        2272    1135    281               326212   115343   14396
     Max        2274    1138    286               326222   115354   14402
     Sum       36381   18197   4537              5219483  1845573  230389
 
     Using Slab Decomposition
 


     bravais-lattice index     =            0
     lattice parameter (alat)  =      37.7945  a.u.
     unit-cell volume          =   53986.6731 (a.u.)^3
     number of atoms/cell      =            2
     number of atomic types    =            1
     number of electrons       =         2.00
     number of Kohn-Sham states=            5
     kinetic-energy cutoff     =      40.0000  Ry
     charge density cutoff     =     320.0000  Ry
     scf convergence threshold =      1.0E-08
     mixing beta               =       0.1000
     number of iterations used =            8  plain     mixing
     Exchange-correlation=  SLA  PW   PBX  PBC
                           (   1   4   3   4   0   0   0)

     celldm(1)=  37.794522  celldm(2)=   0.000000  celldm(3)=   0.000000
     celldm(4)=   0.000000  celldm(5)=   0.000000  celldm(6)=   0.000000

     crystal axes: (cart. coord. in units of alat)
               a(1) = (   1.000000   0.000000   0.000000 )  
               a(2) = (   0.000000   1.000000   0.000000 )  
               a(3) = (   0.000000   0.000000   1.000000 )  

     reciprocal axes: (cart. coord. in units 2 pi/alat)
               b(1) = (  1.000000  0.000000  0.000000 )  
               b(2) = (  0.000000  1.000000  0.000000 )  
               b(3) = (  0.000000  0.000000  1.000000 )  


     PseudoPot. # 1 for H  read from file:
     /beegfs/hotpool/mano/rism/RISM_example/pseudo/h_pbe_v1.4.uspp.F.UPF
     MD5 check sum: 761ae9a214b05c3daf00ab9f6b793d6f
     Pseudo is Ultrasoft, Zval =  1.0
     Generated by new atomic code, or converted to UPF format
     Using radial grid of  615 points,  2 beta functions with: 
                l(1) =   0
                l(2) =   0
     Q(r) pseudized with  8 coefficients,  rinner =    0.700

     atomic species   valence    mass     pseudopotential
     H                 1.00     1.00800     H ( 1.00)

     No symmetry found



   Cartesian axes

     site n.     atom                  positions (alat units)
         1        H      tau(   1) = (   0.0000000   0.0000000  -0.0190410  )
         2        H      tau(   2) = (   0.0000000   0.0000000   0.0195410  )

     number of k points=     1  Gaussian smearing, width (Ry)=  0.0100
                       cart. coord. in units 2pi/alat
        k(    1) = (   0.0000000   0.0000000   0.0000000), wk =   2.0000000

     Dense  grid:  2609742 G-vectors     FFT dimensions: ( 216, 216, 216)

     Smooth grid:   922787 G-vectors     FFT dimensions: ( 160, 160, 160)

     Estimated max dynamical RAM per process >     139.03 MB

     Estimated total dynamical RAM >       2.17 GB

     Initial potential from superposition of free atoms

     starting charge       2.0000, renormalised to       2.0000

     negative rho (up, down):  6.911E-04 0.000E+00
     Starting wfcs are    2 randomized atomic wfcs +    3 random wfcs

     total cpu time spent up to now is        1.4 secs

     Self-consistent Calculation

     iteration #  1     ecut=    40.00 Ry     beta= 0.10
     Davidson diagonalization with overlap
     ethr =  1.00E-02,  avg # of iterations =  5.0

     negative rho (up, down):  7.612E-04 0.000E+00

     total cpu time spent up to now is        1.9 secs

     total energy              =      -2.36529871 Ry
     estimated scf accuracy    <       0.10419524 Ry

     iteration #  2     ecut=    40.00 Ry     beta= 0.10
     Davidson diagonalization with overlap
     ethr =  5.21E-03,  avg # of iterations =  1.0

     negative rho (up, down):  8.898E-04 0.000E+00

     total cpu time spent up to now is        2.4 secs

     total energy              =      -2.32084873 Ry
     estimated scf accuracy    <       0.08081466 Ry

     iteration #  3     ecut=    40.00 Ry     beta= 0.10
     Davidson diagonalization with overlap
     ethr =  4.04E-03,  avg # of iterations =  1.0

     negative rho (up, down):  9.109E-04 0.000E+00

     total cpu time spent up to now is        2.9 secs

     total energy              =      -2.32991017 Ry
     estimated scf accuracy    <       0.00070517 Ry

     iteration #  4     ecut=    40.00 Ry     beta= 0.10
     Davidson diagonalization with overlap
     c_bands:  3 eigenvalues not converged
     ethr =  3.53E-05,  avg # of iterations = 20.0

     negative rho (up, down):  9.637E-04 0.000E+00

     total cpu time spent up to now is        3.7 secs

     total energy              =      -2.33008213 Ry
     estimated scf accuracy    <       0.00019092 Ry

     iteration #  5     ecut=    40.00 Ry     beta= 0.10
     Davidson diagonalization with overlap
     c_bands:  3 eigenvalues not converged
     ethr =  9.55E-06,  avg # of iterations = 20.0

     negative rho (up, down):  1.020E-03 0.000E+00

     total cpu time spent up to now is        4.5 secs

     total energy              =      -2.33010789 Ry
     estimated scf accuracy    <       0.00001691 Ry

     iteration #  6     ecut=    40.00 Ry     beta= 0.10
     Davidson diagonalization with overlap
     c_bands:  1 eigenvalues not converged
     ethr =  8.45E-07,  avg # of iterations = 20.0

     negative rho (up, down):  1.053E-03 0.000E+00

     total cpu time spent up to now is        5.2 secs

     total energy              =      -2.33010820 Ry
     estimated scf accuracy    <       0.00000364 Ry

     iteration #  7     ecut=    40.00 Ry     beta= 0.10
     Davidson diagonalization with overlap
     ethr =  1.82E-07,  avg # of iterations =  2.0

     negative rho (up, down):  1.083E-03 0.000E+00

     total cpu time spent up to now is        5.7 secs

     total energy              =      -2.33010874 Ry
     estimated scf accuracy    <       0.00000018 Ry

     iteration #  8     ecut=    40.00 Ry     beta= 0.10
     Davidson diagonalization with overlap
     ethr =  9.21E-09,  avg # of iterations =  2.0

     negative rho (up, down):  1.110E-03 0.000E+00

     total cpu time spent up to now is        6.3 secs

     total energy              =      -2.33010870 Ry
     estimated scf accuracy    <       0.00000003 Ry

     iteration #  9     ecut=    40.00 Ry     beta= 0.10
     Davidson diagonalization with overlap
     ethr =  1.56E-09,  avg # of iterations =  1.0

     negative rho (up, down):  1.134E-03 0.000E+00

     total cpu time spent up to now is        6.8 secs

     total energy              =      -2.33010869 Ry
     estimated scf accuracy    <       0.00000001 Ry

     iteration # 10     ecut=    40.00 Ry     beta= 0.10
     Davidson diagonalization with overlap
     ethr =  6.42E-10,  avg # of iterations =  1.0

     negative rho (up, down):  1.156E-03 0.000E+00

     total cpu time spent up to now is        7.3 secs

     total energy              =      -2.33010867 Ry
     estimated scf accuracy    <       0.00000002 Ry

     iteration # 11     ecut=    40.00 Ry     beta= 0.10
     Davidson diagonalization with overlap
     ethr =  6.42E-10,  avg # of iterations =  1.0

     negative rho (up, down):  1.353E-03 0.000E+00

     total cpu time spent up to now is        7.7 secs

     End of self-consistent calculation

          k = 0.0000 0.0000 0.0000 (115195 PWs)   bands (ev):

   -10.2396  -0.1636   0.0627   0.1745   0.2046

     the Fermi energy is    -5.0175 ev

!    total energy              =      -2.33010840 Ry
     estimated scf accuracy    <          1.1E-11 Ry
     smearing contrib. (-TS)   =      -0.00000000 Ry
     internal energy E=F+TS    =      -2.33010840 Ry

     The total energy is F=E-TS. E is the sum of the following terms:
     one-electron contribution =      -4.32372285 Ry
     hartree contribution      =       2.28246409 Ry
     xc contribution           =      -1.36029338 Ry
     ewald contribution        =       1.07144374 Ry

     convergence has been achieved in  11 iterations

     Forces acting on atoms (cartesian axes, Ry/au):

     atom    1 type  1   force =    -0.00000000    0.00000000    0.01343055
     atom    2 type  1   force =     0.00000000   -0.00000000   -0.01343055

     Total force =     0.018994     Total SCF correction =     0.000002

     Writing all to output data dir ./output/opt.save/ :
     XML data file, charge density, pseudopotentials, collected wavefunctions
 
     init_run     :      1.13s CPU      1.29s WALL (       1 calls)
     electrons    :      5.47s CPU      6.49s WALL (       1 calls)
     forces       :      0.11s CPU      0.12s WALL (       1 calls)

     Called by init_run:
     wfcinit      :      0.03s CPU      0.04s WALL (       1 calls)
     potinit      :      0.28s CPU      0.36s WALL (       1 calls)
     hinit0       :      0.03s CPU      0.07s WALL (       1 calls)

     Called by electrons:
     c_bands      :      1.26s CPU      1.43s WALL (      11 calls)
     sum_band     :      0.63s CPU      0.68s WALL (      11 calls)
     v_of_rho     :      2.39s CPU      3.05s WALL (      12 calls)
     newd         :      0.33s CPU      0.35s WALL (      12 calls)
     mix_rho      :      0.63s CPU      0.70s WALL (      11 calls)

     Called by c_bands:
     init_us_2    :      0.01s CPU      0.01s WALL (      23 calls)
     regterg      :      1.25s CPU      1.41s WALL (      11 calls)

     Called by *egterg:
     rdiaghg      :      0.01s CPU      0.01s WALL (      85 calls)
     h_psi        :      1.19s CPU      1.35s WALL (      86 calls)
     s_psi        :      0.00s CPU      0.00s WALL (      86 calls)
     g_psi        :      0.00s CPU      0.00s WALL (      74 calls)

     Called by h_psi:
     h_psi:calbec :      0.02s CPU      0.02s WALL (      86 calls)
     vloc_psi     :      1.16s CPU      1.31s WALL (      86 calls)
     add_vuspsi   :      0.01s CPU      0.01s WALL (      86 calls)

     General routines
     calbec       :      0.03s CPU      0.03s WALL (     101 calls)
     fft          :      2.31s CPU      2.78s WALL (     132 calls)
     ffts         :      0.13s CPU      0.15s WALL (      23 calls)
     fftw         :      0.83s CPU      0.93s WALL (     397 calls)
     interpolate  :      0.31s CPU      0.34s WALL (      12 calls)
 
     Parallel routines
 
     PWSCF        :      6.83s CPU      8.15s WALL

 
   This run was terminated on:  17:47:42   8Jun2024            

=------------------------------------------------------------------------------=
   JOB DONE.
=------------------------------------------------------------------------------=
