
     Program PWSCF v.7.2 starts on  4Jun2024 at 10:56: 1 

     This program is part of the open-source Quantum ESPRESSO suite
     for quantum simulation of materials; please cite
         "P. Giannozzi et al., J. Phys.:Condens. Matter 21 395502 (2009);
         "P. Giannozzi et al., J. Phys.:Condens. Matter 29 465901 (2017);
         "P. Giannozzi et al., J. Chem. Phys. 152 154105 (2020);
          URL http://www.quantum-espresso.org", 
     in publications or presentations arising from this work. More details at
     http://www.quantum-espresso.org/quote

     Parallel version (MPI), running on    16 processors

     MPI processes distributed on     1 nodes
     179293 MiB available memory on the printing compute node when the environment starts
 
     Reading input from supercell-002.in
Warning: card &CELL ignored
Warning: card / ignored

     Current dimensions of program PWSCF are:
     Max number of different atomic species (ntypx) = 10
     Max number of k-points (npk) =  40000
     Max angular momentum in pseudopotentials (lmaxx) =  4

     gamma-point specific algorithms are used
 
     R & G space division:  proc/nbgrp/npool/nimage =      16
     Subspace diagonalization in iterative solution of the eigenvalue problem:
     a serial algorithm will be used

 
     Parallelization info
     --------------------
     sticks:   dense  smooth     PW     G-vecs:    dense   smooth      PW
     Min         566     281     69                40786    14396    1790
     Max         568     286     72                40796    14402    1796
     Sum        9085    4537   1129               652671   230389   28671
 
     Using Slab Decomposition
 


     bravais-lattice index     =            0
     lattice parameter (alat)  =      18.8973  a.u.
     unit-cell volume          =    6748.3346 (a.u.)^3
     number of atoms/cell      =            3
     number of atomic types    =            2
     number of electrons       =         8.00
     number of Kohn-Sham states=            4
     kinetic-energy cutoff     =      40.0000  Ry
     charge density cutoff     =     320.0000  Ry
     scf convergence threshold =      1.0E-08
     mixing beta               =       0.3000
     number of iterations used =            8  plain     mixing
     Exchange-correlation=  SLA  PW   PBX  PBC
                           (   1   4   3   4   0   0   0)

     celldm(1)=  18.897261  celldm(2)=   0.000000  celldm(3)=   0.000000
     celldm(4)=   0.000000  celldm(5)=   0.000000  celldm(6)=   0.000000

     crystal axes: (cart. coord. in units of alat)
               a(1) = (   1.000000   0.000000   0.000000 )  
               a(2) = (   0.000000   1.000000   0.000000 )  
               a(3) = (   0.000000   0.000000   1.000000 )  

     reciprocal axes: (cart. coord. in units 2 pi/alat)
               b(1) = (  1.000000  0.000000  0.000000 )  
               b(2) = (  0.000000  1.000000  0.000000 )  
               b(3) = (  0.000000  0.000000  1.000000 )  


     PseudoPot. # 1 for O  read from file:
     /beegfs/hotpool/mano/rism/RISM_example/pseudo/o_pbe_v1.2.uspp.F.UPF
     MD5 check sum: 734c27235a0248c51dbae37a1fbe46ec
     Pseudo is Ultrasoft + core correction, Zval =  6.0
     Generated by new atomic code, or converted to UPF format
     Using radial grid of  737 points,  5 beta functions with: 
                l(1) =   0
                l(2) =   0
                l(3) =   1
                l(4) =   1
                l(5) =   2
     Q(r) pseudized with  8 coefficients,  rinner =    0.900   0.900   0.900
                                                       0.900   0.900

     PseudoPot. # 2 for H  read from file:
     /beegfs/hotpool/mano/rism/RISM_example/pseudo/h_pbe_v1.4.uspp.F.UPF
     MD5 check sum: 761ae9a214b05c3daf00ab9f6b793d6f
     Pseudo is Ultrasoft, Zval =  1.0
     Generated by new atomic code, or converted to UPF format
     Using radial grid of  615 points,  2 beta functions with: 
                l(1) =   0
                l(2) =   0
     Q(r) pseudized with  8 coefficients,  rinner =    0.700

     atomic species   valence    mass     pseudopotential
        O              6.00    15.99940     O ( 1.00)
        H              1.00     1.00794     H ( 1.00)

     No symmetry found



   Cartesian axes

     site n.     atom                  positions (alat units)
         1           O   tau(   1) = (   0.4993890   0.4993890   0.5299058  )
         2           H   tau(   2) = (   0.5000000   0.5769176   0.4698339  )
         3           H   tau(   3) = (   0.5000000   0.4230824   0.4698339  )

     number of k points=     1
                       cart. coord. in units 2pi/alat
        k(    1) = (   0.0000000   0.0000000   0.0000000), wk =   2.0000000

     Dense  grid:   326336 G-vectors     FFT dimensions: ( 108, 108, 108)

     Smooth grid:   115195 G-vectors     FFT dimensions: (  80,  80,  80)

     Estimated max dynamical RAM per process >      51.34 MB

     Estimated total dynamical RAM >     821.37 MB

     Initial potential from superposition of free atoms

     starting charge       8.0000, renormalised to       8.0000

     negative rho (up, down):  1.420E-04 0.000E+00
     Starting wfcs are    6 randomized atomic wfcs

     total cpu time spent up to now is        0.5 secs

     Self-consistent Calculation

     iteration #  1     ecut=    40.00 Ry     beta= 0.30
     Davidson diagonalization with overlap
     ethr =  1.00E-02,  avg # of iterations =  2.0

     negative rho (up, down):  5.680E-04 0.000E+00

     total cpu time spent up to now is        0.6 secs

     total energy              =     -34.61696013 Ry
     estimated scf accuracy    <       0.46777493 Ry

     iteration #  2     ecut=    40.00 Ry     beta= 0.30
     Davidson diagonalization with overlap
     ethr =  5.85E-03,  avg # of iterations =  2.0

     negative rho (up, down):  9.971E-04 0.000E+00

     total cpu time spent up to now is        0.7 secs

     total energy              =     -34.66306715 Ry
     estimated scf accuracy    <       0.04464722 Ry

     iteration #  3     ecut=    40.00 Ry     beta= 0.30
     Davidson diagonalization with overlap
     ethr =  5.58E-04,  avg # of iterations =  2.0

     negative rho (up, down):  1.810E-03 0.000E+00

     total cpu time spent up to now is        0.8 secs

     total energy              =     -34.66572096 Ry
     estimated scf accuracy    <       0.01376044 Ry

     iteration #  4     ecut=    40.00 Ry     beta= 0.30
     Davidson diagonalization with overlap
     ethr =  1.72E-04,  avg # of iterations =  2.0

     negative rho (up, down):  1.928E-03 0.000E+00

     total cpu time spent up to now is        0.9 secs

     total energy              =     -34.66572625 Ry
     estimated scf accuracy    <       0.00605877 Ry

     iteration #  5     ecut=    40.00 Ry     beta= 0.30
     Davidson diagonalization with overlap
     ethr =  7.57E-05,  avg # of iterations =  2.0

     negative rho (up, down):  1.887E-03 0.000E+00

     total cpu time spent up to now is        1.0 secs

     total energy              =     -34.66682125 Ry
     estimated scf accuracy    <       0.00004570 Ry

     iteration #  6     ecut=    40.00 Ry     beta= 0.30
     Davidson diagonalization with overlap
     ethr =  5.71E-07,  avg # of iterations =  2.0

     negative rho (up, down):  1.882E-03 0.000E+00

     total cpu time spent up to now is        1.1 secs

     total energy              =     -34.66682864 Ry
     estimated scf accuracy    <       0.00005269 Ry

     iteration #  7     ecut=    40.00 Ry     beta= 0.30
     Davidson diagonalization with overlap
     ethr =  5.71E-07,  avg # of iterations =  2.0

     negative rho (up, down):  1.827E-03 0.000E+00

     total cpu time spent up to now is        1.2 secs

     total energy              =     -34.66692269 Ry
     estimated scf accuracy    <       0.00004479 Ry

     iteration #  8     ecut=    40.00 Ry     beta= 0.30
     Davidson diagonalization with overlap
     ethr =  5.60E-07,  avg # of iterations =  3.0

     negative rho (up, down):  1.836E-03 0.000E+00

     total cpu time spent up to now is        1.3 secs

     total energy              =     -34.66715070 Ry
     estimated scf accuracy    <       0.00084936 Ry

     iteration #  9     ecut=    40.00 Ry     beta= 0.30
     Davidson diagonalization with overlap
     ethr =  5.60E-07,  avg # of iterations =  2.0

     negative rho (up, down):  1.844E-03 0.000E+00

     total cpu time spent up to now is        1.4 secs

     total energy              =     -34.66727601 Ry
     estimated scf accuracy    <       0.00123413 Ry

     iteration # 10     ecut=    40.00 Ry     beta= 0.30
     Davidson diagonalization with overlap
     ethr =  5.60E-07,  avg # of iterations =  2.0

     negative rho (up, down):  1.757E-03 0.000E+00

     total cpu time spent up to now is        1.5 secs

     total energy              =     -34.66841650 Ry
     estimated scf accuracy    <       0.00166498 Ry

     iteration # 11     ecut=    40.00 Ry     beta= 0.30
     Davidson diagonalization with overlap
     ethr =  5.60E-07,  avg # of iterations =  4.0

     negative rho (up, down):  1.691E-03 0.000E+00

     total cpu time spent up to now is        1.6 secs

     total energy              =     -34.67127106 Ry
     estimated scf accuracy    <       0.00701150 Ry

     iteration # 12     ecut=    40.00 Ry     beta= 0.30
     Davidson diagonalization with overlap
     ethr =  5.60E-07,  avg # of iterations =  4.0

     negative rho (up, down):  1.861E-03 0.000E+00

     total cpu time spent up to now is        1.7 secs

     total energy              =     -34.66651042 Ry
     estimated scf accuracy    <       0.01768322 Ry

     iteration # 13     ecut=    40.00 Ry     beta= 0.30
     Davidson diagonalization with overlap
     ethr =  5.60E-07,  avg # of iterations =  5.0

     negative rho (up, down):  1.955E-03 0.000E+00

     total cpu time spent up to now is        1.8 secs

     total energy              =     -34.66672226 Ry
     estimated scf accuracy    <       0.00298285 Ry

     iteration # 14     ecut=    40.00 Ry     beta= 0.30
     Davidson diagonalization with overlap
     ethr =  5.60E-07,  avg # of iterations =  4.0

     negative rho (up, down):  2.024E-03 0.000E+00

     total cpu time spent up to now is        1.9 secs

     total energy              =     -34.66673054 Ry
     estimated scf accuracy    <       0.00044861 Ry

     iteration # 15     ecut=    40.00 Ry     beta= 0.30
     Davidson diagonalization with overlap
     ethr =  5.60E-07,  avg # of iterations =  3.0

     negative rho (up, down):  2.020E-03 0.000E+00

     total cpu time spent up to now is        2.0 secs

     total energy              =     -34.66681454 Ry
     estimated scf accuracy    <       0.00000006 Ry

     iteration # 16     ecut=    40.00 Ry     beta= 0.30
     Davidson diagonalization with overlap
     ethr =  7.35E-10,  avg # of iterations =  5.0

     negative rho (up, down):  2.017E-03 0.000E+00

     total cpu time spent up to now is        2.1 secs

     total energy              =     -34.66681472 Ry
     estimated scf accuracy    <       0.00000012 Ry

     iteration # 17     ecut=    40.00 Ry     beta= 0.30
     Davidson diagonalization with overlap
     ethr =  7.35E-10,  avg # of iterations =  2.0

     negative rho (up, down):  2.011E-03 0.000E+00

     total cpu time spent up to now is        2.1 secs

     End of self-consistent calculation

          k = 0.0000 0.0000 0.0000 ( 14336 PWs)   bands (ev):

   -25.0839 -12.9016  -9.2092  -7.1103

     highest occupied level (ev):    -7.1103

!    total energy              =     -34.66681472 Ry
     estimated scf accuracy    <          7.7E-09 Ry

     The total energy is the sum of the following terms:
     one-electron contribution =     -63.21300898 Ry
     hartree contribution      =      33.10832587 Ry
     xc contribution           =      -8.68471896 Ry
     ewald contribution        =       4.12258735 Ry

     convergence has been achieved in  17 iterations

     negative rho (up, down):  2.011E-03 0.000E+00

     Forces acting on atoms (cartesian axes, Ry/au):

     atom    1 type  1   force =    -0.00010289    0.01581944    0.01033101
     atom    2 type  2   force =    -0.00001181   -0.00256827    0.00105325
     atom    3 type  2   force =     0.00011470   -0.01325116   -0.01138426
     The non-local contrib.  to forces
     atom    1 type  1   force =     0.02212907    0.00287778   -2.17489924
     atom    2 type  2   force =    -0.00142268   -0.19574773    0.13987011
     atom    3 type  2   force =    -0.00148236    0.20028137    0.14573676
     The ionic contribution  to forces
     atom    1 type  1   force =    -0.04401447    0.03831365    4.32664795
     atom    2 type  2   force =     0.02168031    2.98310090   -2.13118410
     atom    3 type  2   force =     0.02233416   -3.02141456   -2.19546385
     The local contribution  to forces
     atom    1 type  1   force =     0.02190346   -0.02521061   -2.15312101
     atom    2 type  2   force =    -0.02026766   -2.78990499    1.99233208
     atom    3 type  2   force =    -0.02073526    2.80786587    2.03830654
     The core correction contribution to forces
     atom    1 type  1   force =    -0.00011837   -0.00014846    0.01159273
     atom    2 type  2   force =     0.00000000    0.00000000    0.00000000
     atom    3 type  2   force =     0.00000000    0.00000000    0.00000000
     The Hubbard contrib.    to forces
     atom    1 type  1   force =     0.00000000    0.00000000    0.00000000
     atom    2 type  2   force =     0.00000000    0.00000000    0.00000000
     atom    3 type  2   force =     0.00000000    0.00000000    0.00000000
     The SCF correction term to forces
     atom    1 type  1   force =    -0.00000097   -0.00001331    0.00009580
     atom    2 type  2   force =    -0.00000018   -0.00001686    0.00002039
     atom    3 type  2   force =    -0.00000022    0.00001576    0.00002151

     Total force =     0.025883     Total SCF correction =     0.000104

     Writing all to output data dir output/opt.save/
 
     init_run     :      0.15s CPU      0.20s WALL (       1 calls)
     electrons    :      1.64s CPU      1.68s WALL (       1 calls)
     forces       :      0.08s CPU      0.08s WALL (       1 calls)

     Called by init_run:
     wfcinit      :      0.00s CPU      0.01s WALL (       1 calls)
     potinit      :      0.04s CPU      0.05s WALL (       1 calls)
     hinit0       :      0.04s CPU      0.05s WALL (       1 calls)

     Called by electrons:
     c_bands      :      0.11s CPU      0.12s WALL (      17 calls)
     sum_band     :      0.52s CPU      0.53s WALL (      17 calls)
     v_of_rho     :      0.45s CPU      0.46s WALL (      18 calls)
     newd         :      0.44s CPU      0.47s WALL (      18 calls)
     mix_rho      :      0.09s CPU      0.09s WALL (      17 calls)

     Called by c_bands:
     init_us_2    :      0.01s CPU      0.01s WALL (      35 calls)
     init_us_2:cp :      0.01s CPU      0.01s WALL (      35 calls)
     regterg      :      0.10s CPU      0.10s WALL (      17 calls)

     Called by *egterg:
     rdiaghg      :      0.00s CPU      0.01s WALL (      65 calls)
     h_psi        :      0.09s CPU      0.09s WALL (      66 calls)
     s_psi        :      0.00s CPU      0.00s WALL (      66 calls)
     g_psi        :      0.00s CPU      0.00s WALL (      48 calls)

     Called by h_psi:
     h_psi:calbec :      0.01s CPU      0.01s WALL (      66 calls)
     vloc_psi     :      0.08s CPU      0.08s WALL (      66 calls)
     add_vuspsi   :      0.00s CPU      0.00s WALL (      66 calls)

     General routines
     calbec       :      0.01s CPU      0.01s WALL (      87 calls)
     fft          :      0.37s CPU      0.38s WALL (     205 calls)
     ffts         :      0.01s CPU      0.01s WALL (      35 calls)
     fftw         :      0.06s CPU      0.06s WALL (     288 calls)
     interpolate  :      0.04s CPU      0.04s WALL (      18 calls)
 
     Parallel routines
 
     PWSCF        :      2.01s CPU      2.23s WALL

 
   This run was terminated on:  10:56: 3   4Jun2024            

=------------------------------------------------------------------------------=
   JOB DONE.
=------------------------------------------------------------------------------=
