
     Program PWSCF v.7.3.1 starts on 29May2024 at 12:21:53 

     This program is part of the open-source Quantum ESPRESSO suite
     for quantum simulation of materials; please cite
         "P. Giannozzi et al., J. Phys.:Condens. Matter 21 395502 (2009);
         "P. Giannozzi et al., J. Phys.:Condens. Matter 29 465901 (2017);
         "P. Giannozzi et al., J. Chem. Phys. 152 154105 (2020);
          URL http://www.quantum-espresso.org", 
     in publications or presentations arising from this work. More details at
     http://www.quantum-espresso.org/quote

     Parallel version (MPI), running on    64 processors

     MPI processes distributed on     1 nodes
     225803 MiB available memory on the printing compute node when the environment starts
 
     Reading input from espresso.pwi
Warning: card &CELL ignored
Warning: card / ignored
Warning: card &FCP ignored
Warning: card / ignored
Warning: card &RISM ignored
Warning: card / ignored

     Current dimensions of program PWSCF are:
     Max number of different atomic species (ntypx) = 10
     Max number of k-points (npk) =  40000
     Max angular momentum in pseudopotentials (lmaxx) =  4

     gamma-point specific algorithms are used
 
     R & G space division:  proc/nbgrp/npool/nimage =      64
     Subspace diagonalization in iterative solution of the eigenvalue problem:
     a serial algorithm will be used

 
     Parallelization info
     --------------------
     sticks:   dense  smooth     PW     G-vecs:    dense   smooth      PW
     Min         567     284     69                81548    28832    3594
     Max         570     286     72                81558    28844    3612
     Sum       36381   18197   4537              5219483  1845573  230389
 
     Using Slab Decomposition
 


     bravais-lattice index     =            0
     lattice parameter (alat)  =      37.7945  a.u.
     unit-cell volume          =   53986.6731 (a.u.)^3
     number of atoms/cell      =            2
     number of atomic types    =            1
     number of electrons       =         2.00
     number of Kohn-Sham states=            5
     kinetic-energy cutoff     =      40.0000  Ry
     charge density cutoff     =     320.0000  Ry
     scf convergence threshold =      1.0E-08
     mixing beta               =       0.1000
     number of iterations used =            8  plain     mixing
     Exchange-correlation=  SLA  PW   PBX  PBC
                           (   1   4   3   4   0   0   0)

     celldm(1)=  37.794522  celldm(2)=   0.000000  celldm(3)=   0.000000
     celldm(4)=   0.000000  celldm(5)=   0.000000  celldm(6)=   0.000000

     crystal axes: (cart. coord. in units of alat)
               a(1) = (   1.000000   0.000000   0.000000 )  
               a(2) = (   0.000000   1.000000   0.000000 )  
               a(3) = (   0.000000   0.000000   1.000000 )  

     reciprocal axes: (cart. coord. in units 2 pi/alat)
               b(1) = (  1.000000  0.000000  0.000000 )  
               b(2) = (  0.000000  1.000000  0.000000 )  
               b(3) = (  0.000000  0.000000  1.000000 )  


     PseudoPot. # 1 for H  read from file:
     ../../pseudo/h_pbe_v1.4.uspp.F.UPF
     MD5 check sum: 761ae9a214b05c3daf00ab9f6b793d6f
     Pseudo is Ultrasoft, Zval =  1.0
     Generated by new atomic code, or converted to UPF format
     Using radial grid of  615 points,  2 beta functions with: 
                l(1) =   0
                l(2) =   0
     Q(r) pseudized with  8 coefficients,  rinner =    0.700

     atomic species   valence    mass     pseudopotential
     H                 1.00     1.00800     H ( 1.00)

     No symmetry found



   Cartesian axes

     site n.     atom                  positions (alat units)
         1        H      tau(   1) = (   0.0000000   0.0000000  -0.0190410  )
         2        H      tau(   2) = (   0.0000000   0.0000000   0.0195410  )

     number of k points=     1  Gaussian smearing, width (Ry)=  0.0100
                       cart. coord. in units 2pi/alat
        k(    1) = (   0.0000000   0.0000000   0.0000000), wk =   2.0000000

     Dense  grid:  2609742 G-vectors     FFT dimensions: ( 216, 216, 216)

     Smooth grid:   922787 G-vectors     FFT dimensions: ( 160, 160, 160)

     Estimated max dynamical RAM per process >      39.82 MB

     Estimated total dynamical RAM >       2.27 GB

     Initial potential from superposition of free atoms

     starting charge       2.0000, renormalised to       2.0000

     negative rho (up, down):  6.911E-04 0.000E+00
     Starting wfcs are    2 randomized atomic wfcs +    3 random wfcs

     total cpu time spent up to now is        1.9 secs

     Self-consistent Calculation

     iteration #  1     ecut=    40.00 Ry     beta= 0.10
     Davidson diagonalization with overlap
     ethr =  1.00E-02,  avg # of iterations =  6.0

     negative rho (up, down):  7.613E-04 0.000E+00

     total cpu time spent up to now is        2.3 secs

     total energy              =      -2.36529206 Ry
     estimated scf accuracy    <       0.10427389 Ry

     iteration #  2     ecut=    40.00 Ry     beta= 0.10
     Davidson diagonalization with overlap
     ethr =  5.21E-03,  avg # of iterations =  1.0

     negative rho (up, down):  8.889E-04 0.000E+00

     total cpu time spent up to now is        2.7 secs

     total energy              =      -2.32091980 Ry
     estimated scf accuracy    <       0.08078303 Ry

     iteration #  3     ecut=    40.00 Ry     beta= 0.10
     Davidson diagonalization with overlap
     ethr =  4.04E-03,  avg # of iterations =  1.0

     negative rho (up, down):  9.099E-04 0.000E+00

     total cpu time spent up to now is        3.0 secs

     total energy              =      -2.32993225 Ry
     estimated scf accuracy    <       0.00063925 Ry

     iteration #  4     ecut=    40.00 Ry     beta= 0.10
     Davidson diagonalization with overlap
     c_bands:  1 eigenvalues not converged
     ethr =  3.20E-05,  avg # of iterations = 20.0

     negative rho (up, down):  9.600E-04 0.000E+00

     total cpu time spent up to now is        3.5 secs

     total energy              =      -2.33009369 Ry
     estimated scf accuracy    <       0.00021518 Ry

     iteration #  5     ecut=    40.00 Ry     beta= 0.10
     Davidson diagonalization with overlap
     ethr =  1.08E-05,  avg # of iterations =  6.0

     negative rho (up, down):  1.018E-03 0.000E+00

     total cpu time spent up to now is        3.9 secs

     total energy              =      -2.33010804 Ry
     estimated scf accuracy    <       0.00001564 Ry

     iteration #  6     ecut=    40.00 Ry     beta= 0.10
     Davidson diagonalization with overlap
     ethr =  7.82E-07,  avg # of iterations =  8.0

     negative rho (up, down):  1.050E-03 0.000E+00

     total cpu time spent up to now is        4.3 secs

     total energy              =      -2.33010837 Ry
     estimated scf accuracy    <       0.00000157 Ry

     iteration #  7     ecut=    40.00 Ry     beta= 0.10
     Davidson diagonalization with overlap
     ethr =  7.83E-08,  avg # of iterations =  1.0

     negative rho (up, down):  1.081E-03 0.000E+00

     total cpu time spent up to now is        4.6 secs

     total energy              =      -2.33010868 Ry
     estimated scf accuracy    <       0.00000031 Ry

     iteration #  8     ecut=    40.00 Ry     beta= 0.10
     Davidson diagonalization with overlap
     ethr =  1.56E-08,  avg # of iterations =  1.0

     negative rho (up, down):  1.109E-03 0.000E+00

     total cpu time spent up to now is        4.9 secs

     total energy              =      -2.33010870 Ry
     estimated scf accuracy    <       0.00000007 Ry

     iteration #  9     ecut=    40.00 Ry     beta= 0.10
     Davidson diagonalization with overlap
     ethr =  3.42E-09,  avg # of iterations =  1.0

     negative rho (up, down):  1.133E-03 0.000E+00

     total cpu time spent up to now is        5.3 secs

     total energy              =      -2.33010867 Ry
     estimated scf accuracy    <       0.00000003 Ry

     iteration # 10     ecut=    40.00 Ry     beta= 0.10
     Davidson diagonalization with overlap
     ethr =  1.53E-09,  avg # of iterations =  1.0

     negative rho (up, down):  1.155E-03 0.000E+00

     total cpu time spent up to now is        5.6 secs

     total energy              =      -2.33010865 Ry
     estimated scf accuracy    <       0.00000003 Ry

     iteration # 11     ecut=    40.00 Ry     beta= 0.10
     Davidson diagonalization with overlap
     ethr =  1.53E-09,  avg # of iterations =  1.0

     negative rho (up, down):  1.175E-03 0.000E+00

     total cpu time spent up to now is        6.0 secs

     total energy              =      -2.33010866 Ry
     estimated scf accuracy    <       0.00000002 Ry

     iteration # 12     ecut=    40.00 Ry     beta= 0.10
     Davidson diagonalization with overlap
     ethr =  1.17E-09,  avg # of iterations =  1.0

     negative rho (up, down):  1.353E-03 0.000E+00

     total cpu time spent up to now is        6.3 secs

     End of self-consistent calculation

          k = 0.0000 0.0000 0.0000 (115195 PWs)   bands (ev):

   -10.2395  -0.1643   0.0623   0.1682   0.2041

     the Fermi energy is    -5.0177 ev

!    total energy              =      -2.33010840 Ry
     estimated scf accuracy    <          7.7E-10 Ry
     smearing contrib. (-TS)   =      -0.00000000 Ry
     internal energy E=F+TS    =      -2.33010840 Ry

     The total energy is F=E-TS. E is the sum of the following terms:
     one-electron contribution =      -4.32372265 Ry
     hartree contribution      =       2.28246339 Ry
     xc contribution           =      -1.36029288 Ry
     ewald contribution        =       1.07144374 Ry

     convergence has been achieved in  12 iterations

     Forces acting on atoms (cartesian axes, Ry/au):

     atom    1 type  1   force =    -0.00000000   -0.00000000    0.01342991
     atom    2 type  1   force =     0.00000000    0.00000000   -0.01342991

     Total force =     0.018993     Total SCF correction =     0.000009

     Writing all to output data dir ./output/opt.save/ :
     XML data file, charge density, pseudopotentials, collected wavefunctions
 
     init_run     :      1.70s CPU      1.80s WALL (       1 calls)
     electrons    :      4.05s CPU      4.60s WALL (       1 calls)
     forces       :      0.15s CPU      0.17s WALL (       1 calls)

     Called by init_run:
     wfcinit      :      0.03s CPU      0.04s WALL (       1 calls)
     potinit      :      0.20s CPU      0.23s WALL (       1 calls)
     hinit0       :      0.07s CPU      0.09s WALL (       1 calls)

     Called by electrons:
     c_bands      :      0.66s CPU      0.69s WALL (      12 calls)
     sum_band     :      0.47s CPU      0.51s WALL (      12 calls)
     v_of_rho     :      2.06s CPU      2.25s WALL (      13 calls)
     newd         :      0.25s CPU      0.28s WALL (      13 calls)
     mix_rho      :      0.44s CPU      0.48s WALL (      12 calls)

     Called by c_bands:
     init_us_2    :      0.00s CPU      0.00s WALL (      25 calls)
     regterg      :      0.65s CPU      0.67s WALL (      12 calls)

     Called by *egterg:
     rdiaghg      :      0.00s CPU      0.01s WALL (      60 calls)
     h_psi        :      0.64s CPU      0.66s WALL (      61 calls)
     s_psi        :      0.00s CPU      0.00s WALL (      61 calls)
     g_psi        :      0.00s CPU      0.00s WALL (      48 calls)

     Called by h_psi:
     h_psi:calbec :      0.01s CPU      0.01s WALL (      61 calls)
     vloc_psi     :      0.63s CPU      0.64s WALL (      61 calls)
     add_vuspsi   :      0.00s CPU      0.00s WALL (      61 calls)

     General routines
     calbec       :      0.01s CPU      0.01s WALL (      77 calls)
     fft          :      1.79s CPU      2.08s WALL (     143 calls)
     ffts         :      0.13s CPU      0.15s WALL (      25 calls)
     fftw         :      0.54s CPU      0.54s WALL (     314 calls)
     interpolate  :      0.24s CPU      0.26s WALL (      13 calls)
 
     Parallel routines
 
     PWSCF        :      5.99s CPU      6.91s WALL

 
   This run was terminated on:  12:22: 0  29May2024            

=------------------------------------------------------------------------------=
   JOB DONE.
=------------------------------------------------------------------------------=
