
     Program PWSCF v.7.3.1 starts on 29May2024 at 12:20: 5 

     This program is part of the open-source Quantum ESPRESSO suite
     for quantum simulation of materials; please cite
         "P. Giannozzi et al., J. Phys.:Condens. Matter 21 395502 (2009);
         "P. Giannozzi et al., J. Phys.:Condens. Matter 29 465901 (2017);
         "P. Giannozzi et al., J. Chem. Phys. 152 154105 (2020);
          URL http://www.quantum-espresso.org", 
     in publications or presentations arising from this work. More details at
     http://www.quantum-espresso.org/quote

     Parallel version (MPI), running on    64 processors

     MPI processes distributed on     1 nodes
     226057 MiB available memory on the printing compute node when the environment starts
 
     Reading input from espresso.pwi
Warning: card &CELL ignored
Warning: card / ignored
Warning: card &FCP ignored
Warning: card / ignored
Warning: card &RISM ignored
Warning: card / ignored

     Current dimensions of program PWSCF are:
     Max number of different atomic species (ntypx) = 10
     Max number of k-points (npk) =  40000
     Max angular momentum in pseudopotentials (lmaxx) =  4

     gamma-point specific algorithms are used
 
     R & G space division:  proc/nbgrp/npool/nimage =      64
     Subspace diagonalization in iterative solution of the eigenvalue problem:
     a serial algorithm will be used

 
     Parallelization info
     --------------------
     sticks:   dense  smooth     PW     G-vecs:    dense   smooth      PW
     Min         567     284     69                81548    28832    3594
     Max         570     286     72                81558    28844    3612
     Sum       36381   18197   4537              5219483  1845573  230389
 
     Using Slab Decomposition
 


     bravais-lattice index     =            0
     lattice parameter (alat)  =      37.7945  a.u.
     unit-cell volume          =   53986.6760 (a.u.)^3
     number of atoms/cell      =            2
     number of atomic types    =            1
     number of electrons       =         2.00
     number of Kohn-Sham states=            5
     kinetic-energy cutoff     =      40.0000  Ry
     charge density cutoff     =     320.0000  Ry
     scf convergence threshold =      1.0E-08
     mixing beta               =       0.1000
     number of iterations used =            8  plain     mixing
     energy convergence thresh.=      1.0E-05
     force convergence thresh. =      1.0E-04
     Exchange-correlation=  SLA  PW   PBX  PBC
                           (   1   4   3   4   0   0   0)
     nstep                     =          200


     celldm(1)=  37.794522  celldm(2)=   0.000000  celldm(3)=   0.000000
     celldm(4)=   0.000000  celldm(5)=   0.000000  celldm(6)=   0.000000

     crystal axes: (cart. coord. in units of alat)
               a(1) = (   1.000000   0.000000   0.000000 )  
               a(2) = (   0.000000   1.000000   0.000000 )  
               a(3) = (   0.000000   0.000000   1.000000 )  

     reciprocal axes: (cart. coord. in units 2 pi/alat)
               b(1) = (  1.000000  0.000000  0.000000 )  
               b(2) = (  0.000000  1.000000  0.000000 )  
               b(3) = (  0.000000  0.000000  1.000000 )  


     PseudoPot. # 1 for H  read from file:
     ../../pseudo/h_pbe_v1.4.uspp.F.UPF
     MD5 check sum: 761ae9a214b05c3daf00ab9f6b793d6f
     Pseudo is Ultrasoft, Zval =  1.0
     Generated by new atomic code, or converted to UPF format
     Using radial grid of  615 points,  2 beta functions with: 
                l(1) =   0
                l(2) =   0
     Q(r) pseudized with  8 coefficients,  rinner =    0.700

     atomic species   valence    mass     pseudopotential
     H                 1.00     1.00800     H ( 1.00)

     No symmetry found



   Cartesian axes

     site n.     atom                  positions (alat units)
         1        H      tau(   1) = (   0.0000000   0.0000000  -0.0190410  )
         2        H      tau(   2) = (   0.0000000   0.0000000   0.0190410  )

     number of k points=     1  Gaussian smearing, width (Ry)=  0.0100
                       cart. coord. in units 2pi/alat
        k(    1) = (   0.0000000   0.0000000   0.0000000), wk =   2.0000000

     Dense  grid:  2609742 G-vectors     FFT dimensions: ( 216, 216, 216)

     Smooth grid:   922787 G-vectors     FFT dimensions: ( 160, 160, 160)

     Estimated max dynamical RAM per process >      39.82 MB

     Estimated total dynamical RAM >       2.27 GB

     Initial potential from superposition of free atoms

     starting charge       2.0000, renormalised to       2.0000

     negative rho (up, down):  6.881E-04 0.000E+00
     Starting wfcs are    2 randomized atomic wfcs +    3 random wfcs

     total cpu time spent up to now is        1.9 secs

     Self-consistent Calculation

     iteration #  1     ecut=    40.00 Ry     beta= 0.10
     Davidson diagonalization with overlap
     ethr =  1.00E-02,  avg # of iterations =  6.0

     negative rho (up, down):  7.600E-04 0.000E+00

     total cpu time spent up to now is        2.3 secs

     total energy              =      -2.36655016 Ry
     estimated scf accuracy    <       0.10737462 Ry

     iteration #  2     ecut=    40.00 Ry     beta= 0.10
     Davidson diagonalization with overlap
     ethr =  5.37E-03,  avg # of iterations =  1.0

     negative rho (up, down):  8.912E-04 0.000E+00

     total cpu time spent up to now is        2.6 secs

     total energy              =      -2.32076204 Ry
     estimated scf accuracy    <       0.08316713 Ry

     iteration #  3     ecut=    40.00 Ry     beta= 0.10
     Davidson diagonalization with overlap
     ethr =  4.16E-03,  avg # of iterations =  1.0

     negative rho (up, down):  9.120E-04 0.000E+00

     total cpu time spent up to now is        2.9 secs

     total energy              =      -2.33006103 Ry
     estimated scf accuracy    <       0.00065096 Ry

     iteration #  4     ecut=    40.00 Ry     beta= 0.10
     Davidson diagonalization with overlap
     c_bands:  1 eigenvalues not converged
     ethr =  3.25E-05,  avg # of iterations = 20.0

     negative rho (up, down):  9.633E-04 0.000E+00

     total cpu time spent up to now is        3.4 secs

     total energy              =      -2.33022065 Ry
     estimated scf accuracy    <       0.00023887 Ry

     iteration #  5     ecut=    40.00 Ry     beta= 0.10
     Davidson diagonalization with overlap
     ethr =  1.19E-05,  avg # of iterations = 10.0

     negative rho (up, down):  1.022E-03 0.000E+00

     total cpu time spent up to now is        3.8 secs

     total energy              =      -2.33023757 Ry
     estimated scf accuracy    <       0.00001549 Ry

     iteration #  6     ecut=    40.00 Ry     beta= 0.10
     Davidson diagonalization with overlap
     ethr =  7.74E-07,  avg # of iterations = 11.0

     negative rho (up, down):  1.055E-03 0.000E+00

     total cpu time spent up to now is        4.3 secs

     total energy              =      -2.33023705 Ry
     estimated scf accuracy    <       0.00000286 Ry

     iteration #  7     ecut=    40.00 Ry     beta= 0.10
     Davidson diagonalization with overlap
     ethr =  1.43E-07,  avg # of iterations =  1.0

     negative rho (up, down):  1.087E-03 0.000E+00

     total cpu time spent up to now is        4.6 secs

     total energy              =      -2.33023752 Ry
     estimated scf accuracy    <       0.00000029 Ry

     iteration #  8     ecut=    40.00 Ry     beta= 0.10
     Davidson diagonalization with overlap
     ethr =  1.43E-08,  avg # of iterations =  1.0

     negative rho (up, down):  1.116E-03 0.000E+00

     total cpu time spent up to now is        5.0 secs

     total energy              =      -2.33023754 Ry
     estimated scf accuracy    <       0.00000004 Ry

     iteration #  9     ecut=    40.00 Ry     beta= 0.10
     Davidson diagonalization with overlap
     ethr =  1.94E-09,  avg # of iterations =  1.0

     negative rho (up, down):  1.366E-03 0.000E+00

     total cpu time spent up to now is        5.3 secs

     End of self-consistent calculation

          k = 0.0000 0.0000 0.0000 (115195 PWs)   bands (ev):

   -10.2864  -0.1619   0.0798   0.1709   0.2064

     the Fermi energy is    -5.0400 ev

!    total energy              =      -2.33023715 Ry
     estimated scf accuracy    <          5.9E-09 Ry
     smearing contrib. (-TS)   =      -0.00000000 Ry
     internal energy E=F+TS    =      -2.33023715 Ry

     The total energy is F=E-TS. E is the sum of the following terms:
     one-electron contribution =      -4.34882449 Ry
     hartree contribution      =       2.29545143 Ry
     xc contribution           =      -1.36631429 Ry
     ewald contribution        =       1.08945020 Ry

     convergence has been achieved in   9 iterations

     Forces acting on atoms (cartesian axes, Ry/au):

     atom    1 type  1   force =    -0.00000006   -0.00000002    0.00007401
     atom    2 type  1   force =     0.00000006    0.00000002   -0.00007401

     Total force =     0.000105     Total SCF correction =     0.000007

     BFGS Geometry Optimization
     Energy error            =      1.1E-08 Ry
     Gradient error          =      7.4E-05 Ry/Bohr

     bfgs converged in   1 scf cycles and   0 bfgs steps
     (criteria: energy <  1.0E-05 Ry, force <  1.0E-04 Ry/Bohr)

     End of BFGS Geometry Optimization

     Final energy             =      -2.3302371541 Ry
Begin final coordinates

ATOMIC_POSITIONS (angstrom)
H                0.0000000000        0.0000000000       -0.3808192597
H                0.0000000000        0.0000000000        0.3808192597
End final coordinates



     Writing all to output data dir ./output/opt.save/ :
     XML data file, charge density, pseudopotentials, collected wavefunctions
 
     init_run     :      1.65s CPU      1.77s WALL (       1 calls)
     electrons    :      3.20s CPU      3.60s WALL (       1 calls)
     forces       :      0.07s CPU      0.08s WALL (       1 calls)

     Called by init_run:
     wfcinit      :      0.02s CPU      0.02s WALL (       1 calls)
     potinit      :      0.19s CPU      0.23s WALL (       1 calls)
     hinit0       :      0.06s CPU      0.08s WALL (       1 calls)

     Called by electrons:
     c_bands      :      0.59s CPU      0.62s WALL (       9 calls)
     sum_band     :      0.36s CPU      0.41s WALL (       9 calls)
     v_of_rho     :      1.65s CPU      1.78s WALL (      10 calls)
     newd         :      0.20s CPU      0.20s WALL (      10 calls)
     mix_rho      :      0.29s CPU      0.33s WALL (       9 calls)

     Called by c_bands:
     init_us_2    :      0.00s CPU      0.00s WALL (      19 calls)
     regterg      :      0.59s CPU      0.61s WALL (       9 calls)

     Called by *egterg:
     rdiaghg      :      0.01s CPU      0.01s WALL (      61 calls)
     h_psi        :      0.56s CPU      0.58s WALL (      62 calls)
     s_psi        :      0.00s CPU      0.00s WALL (      62 calls)
     g_psi        :      0.00s CPU      0.00s WALL (      52 calls)

     Called by h_psi:
     h_psi:calbec :      0.01s CPU      0.01s WALL (      62 calls)
     vloc_psi     :      0.55s CPU      0.57s WALL (      62 calls)
     add_vuspsi   :      0.00s CPU      0.00s WALL (      62 calls)

     General routines
     calbec       :      0.01s CPU      0.01s WALL (      75 calls)
     fft          :      1.46s CPU      1.63s WALL (     110 calls)
     ffts         :      0.09s CPU      0.12s WALL (      19 calls)
     fftw         :      0.45s CPU      0.47s WALL (     287 calls)
     interpolate  :      0.18s CPU      0.20s WALL (      10 calls)
 
     Parallel routines
 
     PWSCF        :      5.03s CPU      5.81s WALL

 
   This run was terminated on:  12:20:11  29May2024            

=------------------------------------------------------------------------------=
   JOB DONE.
=------------------------------------------------------------------------------=
