
     Program PWSCF v.7.2 starts on  4Jun2024 at  9:40:14 

     This program is part of the open-source Quantum ESPRESSO suite
     for quantum simulation of materials; please cite
         "P. Giannozzi et al., J. Phys.:Condens. Matter 21 395502 (2009);
         "P. Giannozzi et al., J. Phys.:Condens. Matter 29 465901 (2017);
         "P. Giannozzi et al., J. Chem. Phys. 152 154105 (2020);
          URL http://www.quantum-espresso.org", 
     in publications or presentations arising from this work. More details at
     http://www.quantum-espresso.org/quote

     Parallel version (MPI), running on    16 processors

     MPI processes distributed on     1 nodes
     179879 MiB available memory on the printing compute node when the environment starts
 
     Reading input from scf.in

     Current dimensions of program PWSCF are:
     Max number of different atomic species (ntypx) = 10
     Max number of k-points (npk) =  40000
     Max angular momentum in pseudopotentials (lmaxx) =  4
     Message from routine setup:
     using ibrav=0 with symmetry is DISCOURAGED, use correct ibrav instead
 
     K-points division:     npool     =       2
     R & G space division:  proc/nbgrp/npool/nimage =       8
     Subspace diagonalization in iterative solution of the eigenvalue problem:
     a serial algorithm will be used

 
     Parallelization info
     --------------------
     sticks:   dense  smooth     PW     G-vecs:    dense   smooth      PW
     Min          63      31     10                  965      339      66
     Max          64      32     11                  968      343      69
     Sum         511     253     85                 7727     2733     537
 
     Using Slab Decomposition
 


     bravais-lattice index     =            0
     lattice parameter (alat)  =       4.8238  a.u.
     unit-cell volume          =      79.3703 (a.u.)^3
     number of atoms/cell      =            1
     number of atomic types    =            1
     number of electrons       =        19.00
     number of Kohn-Sham states=           14
     kinetic-energy cutoff     =      40.0000  Ry
     charge density cutoff     =     320.0000  Ry
     scf convergence threshold =      1.0E-08
     mixing beta               =       0.5000
     number of iterations used =            8  plain     mixing
     energy convergence thresh.=      1.0E-04
     force convergence thresh. =      1.0E-03
     press convergence thresh. =      5.0E-01
     Exchange-correlation= SLA  PW   PBE  PBE
                           (   1   4   3   4   0   0   0)
     nstep                     =           50


     celldm(1)=   4.823820  celldm(2)=   0.000000  celldm(3)=   0.000000
     celldm(4)=   0.000000  celldm(5)=   0.000000  celldm(6)=   0.000000

     crystal axes: (cart. coord. in units of alat)
               a(1) = (   0.000000   0.707107   0.707107 )  
               a(2) = (   0.707107   0.000000   0.707107 )  
               a(3) = (   0.707107   0.707107   0.000000 )  

     reciprocal axes: (cart. coord. in units 2 pi/alat)
               b(1) = ( -0.707107  0.707107  0.707107 )  
               b(2) = (  0.707107 -0.707107  0.707107 )  
               b(3) = (  0.707107  0.707107 -0.707107 )  


     PseudoPot. # 1 for Cu read from file:
     ../../pseudo/cu_pbe_v1.2.uspp.F.UPF
     MD5 check sum: 6e991ff952a84172a2a52a1c1e996048
     Pseudo is Ultrasoft + core correction, Zval = 19.0
     Generated by new atomic code, or converted to UPF format
     Using radial grid of  867 points,  6 beta functions with: 
                l(1) =   0
                l(2) =   0
                l(3) =   1
                l(4) =   1
                l(5) =   2
                l(6) =   2
     Q(r) pseudized with  8 coefficients,  rinner =    1.150   1.150   1.150
                                                       1.150   1.150

     atomic species   valence    mass     pseudopotential
        Cu            19.00    63.54600     Cu( 1.00)

     Starting magnetic structure 
     atomic species   magnetization
        Cu           1.000

     48 Sym. Ops., with inversion, found



   Cartesian axes

     site n.     atom                  positions (alat units)
         1           Cu  tau(   1) = (   0.0000000   0.0000000   0.0000000  )

     number of k points=    10  Methfessel-Paxton smearing, width (Ry)=  0.0100
                       cart. coord. in units 2pi/alat
        k(    1) = (   0.0883883   0.0883883   0.0883883), wk =   0.0312500
        k(    2) = (   0.2651650   0.2651650  -0.0883883), wk =   0.0937500
        k(    3) = (  -0.2651650  -0.2651650   0.4419417), wk =   0.0937500
        k(    4) = (  -0.0883883  -0.0883883   0.2651650), wk =   0.0937500
        k(    5) = (   0.4419417   0.0883883   0.0883883), wk =   0.0937500
        k(    6) = (  -0.0883883  -0.4419417   0.6187184), wk =   0.1875000
        k(    7) = (   0.0883883  -0.2651650   0.4419417), wk =   0.1875000
        k(    8) = (  -0.6187184   0.0883883   0.0883883), wk =   0.0937500
        k(    9) = (   0.2651650   0.2651650   0.2651650), wk =   0.0312500
        k(   10) = (  -0.2651650  -0.2651650   0.7954951), wk =   0.0937500

     Dense  grid:     7727 G-vectors     FFT dimensions: (  27,  27,  27)

     Smooth grid:     2733 G-vectors     FFT dimensions: (  20,  20,  20)

     Estimated max dynamical RAM per process >       5.49 MB

     Estimated total dynamical RAM >      83.99 MB

     Check: negative core charge=   -0.000001
     Generating pointlists ...
     new r_m :   0.4125 (alat units)  1.9898 (a.u.) for type    1

     Initial potential from superposition of free atoms

     starting charge      18.0000, renormalised to      19.0000
     Starting wfcs are   13 randomized atomic wfcs +    1 random wfcs

     total cpu time spent up to now is        0.2 secs

     Self-consistent Calculation

     iteration #  1     ecut=    40.00 Ry     beta= 0.50
     Davidson diagonalization with overlap
     ethr =  1.00E-02,  avg # of iterations =  5.1

     total cpu time spent up to now is        0.2 secs

     total energy              =    -394.94016166 Ry
     estimated scf accuracy    <      21.47389944 Ry

     total magnetization       =     6.12 Bohr mag/cell
     absolute magnetization    =     6.12 Bohr mag/cell

     iteration #  2     ecut=    40.00 Ry     beta= 0.50
     Davidson diagonalization with overlap
     ethr =  1.00E-02,  avg # of iterations =  3.0

     total cpu time spent up to now is        0.3 secs

     total energy              =    -401.38298123 Ry
     estimated scf accuracy    <      18.25224619 Ry

     total magnetization       =     0.31 Bohr mag/cell
     absolute magnetization    =     0.61 Bohr mag/cell

     iteration #  3     ecut=    40.00 Ry     beta= 0.50
     Davidson diagonalization with overlap
     ethr =  1.00E-02,  avg # of iterations =  2.0

     total cpu time spent up to now is        0.3 secs

     total energy              =    -403.36233278 Ry
     estimated scf accuracy    <       4.18627309 Ry

     total magnetization       =     0.63 Bohr mag/cell
     absolute magnetization    =     0.97 Bohr mag/cell

     iteration #  4     ecut=    40.00 Ry     beta= 0.50
     Davidson diagonalization with overlap
     ethr =  1.00E-02,  avg # of iterations =  2.0

     total cpu time spent up to now is        0.3 secs

     total energy              =    -403.25842882 Ry
     estimated scf accuracy    <       2.23907438 Ry

     total magnetization       =     0.18 Bohr mag/cell
     absolute magnetization    =     0.33 Bohr mag/cell

     iteration #  5     ecut=    40.00 Ry     beta= 0.50
     Davidson diagonalization with overlap
     ethr =  1.00E-02,  avg # of iterations =  1.6

     total cpu time spent up to now is        0.3 secs

     total energy              =    -403.76743938 Ry
     estimated scf accuracy    <       0.14194409 Ry

     total magnetization       =    -0.23 Bohr mag/cell
     absolute magnetization    =     0.23 Bohr mag/cell

     iteration #  6     ecut=    40.00 Ry     beta= 0.50
     Davidson diagonalization with overlap
     ethr =  7.47E-04,  avg # of iterations =  1.4

     total cpu time spent up to now is        0.4 secs

     total energy              =    -403.77177984 Ry
     estimated scf accuracy    <       0.02392628 Ry

     total magnetization       =    -0.09 Bohr mag/cell
     absolute magnetization    =     0.09 Bohr mag/cell

     iteration #  7     ecut=    40.00 Ry     beta= 0.50
     Davidson diagonalization with overlap
     ethr =  1.26E-04,  avg # of iterations =  1.5

     total cpu time spent up to now is        0.4 secs

     total energy              =    -403.77724607 Ry
     estimated scf accuracy    <       0.00264343 Ry

     total magnetization       =    -0.13 Bohr mag/cell
     absolute magnetization    =     0.13 Bohr mag/cell

     iteration #  8     ecut=    40.00 Ry     beta= 0.50
     Davidson diagonalization with overlap
     ethr =  1.39E-05,  avg # of iterations =  1.3

     total cpu time spent up to now is        0.4 secs

     total energy              =    -403.77744735 Ry
     estimated scf accuracy    <       0.00073594 Ry

     total magnetization       =    -0.06 Bohr mag/cell
     absolute magnetization    =     0.06 Bohr mag/cell

     iteration #  9     ecut=    40.00 Ry     beta= 0.50
     Davidson diagonalization with overlap
     ethr =  3.87E-06,  avg # of iterations =  1.1

     total cpu time spent up to now is        0.5 secs

     total energy              =    -403.77744425 Ry
     estimated scf accuracy    <       0.00026329 Ry

     total magnetization       =    -0.05 Bohr mag/cell
     absolute magnetization    =     0.05 Bohr mag/cell

     iteration # 10     ecut=    40.00 Ry     beta= 0.50
     Davidson diagonalization with overlap
     ethr =  1.39E-06,  avg # of iterations =  1.1

     total cpu time spent up to now is        0.5 secs

     total energy              =    -403.77744903 Ry
     estimated scf accuracy    <       0.00006268 Ry

     total magnetization       =    -0.03 Bohr mag/cell
     absolute magnetization    =     0.03 Bohr mag/cell

     iteration # 11     ecut=    40.00 Ry     beta= 0.50
     Davidson diagonalization with overlap
     ethr =  3.30E-07,  avg # of iterations =  1.4

     total cpu time spent up to now is        0.5 secs

     total energy              =    -403.77746346 Ry
     estimated scf accuracy    <       0.00000148 Ry

     total magnetization       =    -0.01 Bohr mag/cell
     absolute magnetization    =     0.01 Bohr mag/cell

     iteration # 12     ecut=    40.00 Ry     beta= 0.50
     Davidson diagonalization with overlap
     ethr =  7.79E-09,  avg # of iterations =  2.5

     total cpu time spent up to now is        0.6 secs

     total energy              =    -403.77746680 Ry
     estimated scf accuracy    <       0.00000414 Ry

     total magnetization       =    -0.00 Bohr mag/cell
     absolute magnetization    =     0.00 Bohr mag/cell

     iteration # 13     ecut=    40.00 Ry     beta= 0.50
     Davidson diagonalization with overlap
     ethr =  7.79E-09,  avg # of iterations =  1.8

     total cpu time spent up to now is        0.6 secs

     total energy              =    -403.77746739 Ry
     estimated scf accuracy    <       0.00000014 Ry

     total magnetization       =     0.00 Bohr mag/cell
     absolute magnetization    =     0.00 Bohr mag/cell

     iteration # 14     ecut=    40.00 Ry     beta= 0.50
     Davidson diagonalization with overlap
     ethr =  7.55E-10,  avg # of iterations =  1.7

     total cpu time spent up to now is        0.6 secs

     total energy              =    -403.77746740 Ry
     estimated scf accuracy    <       0.00000002 Ry

     total magnetization       =     0.00 Bohr mag/cell
     absolute magnetization    =     0.00 Bohr mag/cell

     iteration # 15     ecut=    40.00 Ry     beta= 0.50
     Davidson diagonalization with overlap
     ethr =  9.53E-11,  avg # of iterations =  1.4
 
     Magnetic moment per site  (integrated on atomic sphere of radius R)
     atom   1 (R=0.413)  charge= 17.8144  magn= -0.0000

     total cpu time spent up to now is        0.7 secs

     End of self-consistent calculation

 ------ SPIN UP ------------


          k = 0.0884 0.0884 0.0884 (   335 PWs)   bands (ev):

   -96.3448 -53.6936 -53.6798 -53.6798   7.2745  13.0763  13.2856  13.2856
    13.9975  13.9975  35.0301  39.4047  40.2528  40.2528

          k = 0.2652 0.2652-0.0884 (   339 PWs)   bands (ev):

   -96.3368 -53.7467 -53.7009 -53.6873   9.9190  12.7788  13.2295  13.4736
    13.9708  14.6948  27.0801  32.4413  39.6432  40.2925

          k =-0.2652-0.2652 0.4419 (   341 PWs)   bands (ev):

   -96.3320 -53.7810 -53.7037 -53.6978  11.3320  12.9411  13.3422  13.5103
    14.6264  16.3009  20.6486  33.6592  35.4602  36.9483

          k =-0.0884-0.0884 0.2652 (   335 PWs)   bands (ev):

   -96.3401 -53.7220 -53.6904 -53.6887   8.6977  12.7495  13.4006  13.5186
    13.9041  14.2333  31.1092  35.6855  36.9459  39.4547

          k = 0.4419 0.0884 0.0884 (   333 PWs)   bands (ev):

   -96.3334 -53.7542 -53.7084 -53.7054  10.8203  12.2566  13.3613  13.9584
    14.5331  14.7891  28.1326  31.3619  32.0794  35.7659

          k =-0.0884-0.4419 0.6187 (   341 PWs)   bands (ev):

   -96.3287 -53.7634 -53.7382 -53.7137  11.9877  12.2647  13.0704  14.0505
    14.6418  19.5152  22.5603  25.9717  28.1909  39.4890

          k = 0.0884-0.2652 0.4419 (   338 PWs)   bands (ev):

   -96.3320 -53.7638 -53.7186 -53.6998  11.5124  12.5745  12.9006  13.7433
    14.3764  16.0635  24.1959  29.6603  32.5822  40.0827

          k =-0.6187 0.0884 0.0884 (   338 PWs)   bands (ev):

   -96.3287 -53.7747 -53.7243 -53.7159  11.4500  11.9122  14.0987  14.3855
    14.7007  17.4666  24.9604  26.4124  30.0373  35.0209

          k = 0.2652 0.2652 0.2652 (   338 PWs)   bands (ev):

   -96.3348 -53.7715 -53.6916 -53.6916  10.5928  13.2226  13.2226  13.5440
    14.4471  14.4471  23.0964  37.6826  38.4099  38.4099

          k =-0.2652-0.2652 0.7955 (   343 PWs)   bands (ev):

   -96.3301 -53.7664 -53.7332 -53.7022  11.9809  12.4981  13.0214  13.7369
    14.4256  18.3160  21.4474  27.1744  33.8909  36.4634

 ------ SPIN DOWN ----------


          k = 0.0884 0.0884 0.0884 (   335 PWs)   bands (ev):

   -96.3450 -53.6937 -53.6799 -53.6799   7.2746  13.0762  13.2855  13.2855
    13.9974  13.9974  35.0301  39.4048  40.2529  40.2529

          k = 0.2652 0.2652-0.0884 (   339 PWs)   bands (ev):

   -96.3369 -53.7468 -53.7010 -53.6874   9.9190  12.7787  13.2294  13.4735
    13.9708  14.6948  27.0802  32.4414  39.6433  40.2926

          k =-0.2652-0.2652 0.4419 (   341 PWs)   bands (ev):

   -96.3321 -53.7811 -53.7038 -53.6979  11.3320  12.9411  13.3422  13.5103
    14.6263  16.3009  20.6486  33.6592  35.4603  36.9484

          k =-0.0884-0.0884 0.2652 (   335 PWs)   bands (ev):

   -96.3402 -53.7221 -53.6905 -53.6888   8.6978  12.7494  13.4005  13.5186
    13.9041  14.2332  31.1092  35.6855  36.9459  39.4547

          k = 0.4419 0.0884 0.0884 (   333 PWs)   bands (ev):

   -96.3335 -53.7544 -53.7085 -53.7055  10.8204  12.2565  13.3612  13.9583
    14.5330  14.7890  28.1326  31.3620  32.0795  35.7660

          k =-0.0884-0.4419 0.6187 (   341 PWs)   bands (ev):

   -96.3288 -53.7635 -53.7383 -53.7138  11.9877  12.2647  13.0704  14.0504
    14.6417  19.5153  22.5604  25.9717  28.1909  39.4890

          k = 0.0884-0.2652 0.4419 (   338 PWs)   bands (ev):

   -96.3321 -53.7639 -53.7188 -53.6999  11.5124  12.5744  12.9005  13.7432
    14.3763  16.0635  24.1959  29.6603  32.5822  40.0828

          k =-0.6187 0.0884 0.0884 (   338 PWs)   bands (ev):

   -96.3288 -53.7748 -53.7244 -53.7160  11.4499  11.9122  14.0987  14.3854
    14.7006  17.4667  24.9605  26.4124  30.0374  35.0209

          k = 0.2652 0.2652 0.2652 (   338 PWs)   bands (ev):

   -96.3349 -53.7716 -53.6917 -53.6917  10.5928  13.2225  13.2225  13.5440
    14.4470  14.4470  23.0964  37.6826  38.4100  38.4100

          k =-0.2652-0.2652 0.7955 (   343 PWs)   bands (ev):

   -96.3302 -53.7665 -53.7333 -53.7023  11.9809  12.4980  13.0213  13.7369
    14.4255  18.3160  21.4474  27.1745  33.8910  36.4635

     the Fermi energy is    16.1269 ev

!    total energy              =    -403.77746740 Ry
     estimated scf accuracy    <          4.9E-09 Ry
     smearing contrib. (-TS)   =      -0.00012378 Ry
     internal energy E=F+TS    =    -403.77734363 Ry

     The total energy is F=E-TS. E is the sum of the following terms:
     one-electron contribution =    -267.81555287 Ry
     hartree contribution      =     145.48139355 Ry
     xc contribution           =     -38.82273183 Ry
     ewald contribution        =    -242.62045248 Ry

     total magnetization       =    -0.00 Bohr mag/cell
     absolute magnetization    =     0.00 Bohr mag/cell

     convergence has been achieved in  15 iterations

     Forces acting on atoms (cartesian axes, Ry/au):

     atom    1 type  1   force =     0.00000000    0.00000000    0.00000000
     The non-local contrib.  to forces
     atom    1 type  1   force =     0.00000000   -0.00000000   -0.00000000
     The ionic contribution  to forces
     atom    1 type  1   force =     0.00000000    0.00000000    0.00000000
     The local contribution  to forces
     atom    1 type  1   force =     0.00000000    0.00000000    0.00000000
     The core correction contribution to forces
     atom    1 type  1   force =    -0.00000000    0.00000000   -0.00000000
     The Hubbard contrib.    to forces
     atom    1 type  1   force =     0.00000000    0.00000000    0.00000000
     The SCF correction term to forces
     atom    1 type  1   force =    -0.00000000   -0.00000000   -0.00000000

     Total force =     0.000000     Total SCF correction =     0.000000


     Computing stress (Cartesian axis) and pressure

          total   stress  (Ry/bohr**3)                   (kbar)     P=       51.13
   0.00034754   0.00000000   0.00000000           51.13        0.00        0.00
   0.00000000   0.00034754  -0.00000000            0.00       51.13       -0.00
   0.00000000  -0.00000000   0.00034754            0.00       -0.00       51.13


     BFGS Geometry Optimization
     Energy error            =      0.0E+00 Ry
     Gradient error          =      0.0E+00 Ry/Bohr
     Cell gradient error     =      5.1E+01 kbar

     number of scf cycles    =   1
     number of bfgs steps    =   0

     enthalpy           new  =    -403.7774674042 Ry

     new trust radius        =       0.0154813098 bohr
     new conv_thr            =       0.0000000100 Ry

     new unit-cell volume =     81.45721 a.u.^3 (    12.07071 Ang^3 )
     density =      8.74187 g/cm^3

CELL_PARAMETERS (angstrom)
   0.000000000   1.820682879   1.820682879
   1.820682879  -0.000000000   1.820682879
   1.820682879   1.820682879   0.000000000

ATOMIC_POSITIONS (angstrom)
Cu            0.0000000000        0.0000000000        0.0000000000



     Writing config-only to output data dir ./output/opt.save/
     NEW-OLD atomic charge density approx. for the potential

     Check: negative core charge=   -0.000001
     extrapolated charge   19.46115, renormalised to   19.00000
     Generating pointlists ...

     total cpu time spent up to now is        0.7 secs

     Self-consistent Calculation

     iteration #  1     ecut=    40.00 Ry     beta= 0.50
     Davidson diagonalization with overlap
     ethr =  1.00E-06,  avg # of iterations =  6.8

     total cpu time spent up to now is        0.8 secs

     total energy              =    -402.17738337 Ry
     estimated scf accuracy    <       1.79630277 Ry

     total magnetization       =    -0.00 Bohr mag/cell
     absolute magnetization    =     0.00 Bohr mag/cell

     iteration #  2     ecut=    40.00 Ry     beta= 0.50
     Davidson diagonalization with overlap
     ethr =  9.45E-03,  avg # of iterations =  2.9
     Minimization algorithm failed to find Fermi energy: reverting to bisection
     Possible cause: smearing is larger than the electronic band-gap.

     total cpu time spent up to now is        0.8 secs

     total energy              =    -403.72600680 Ry
     estimated scf accuracy    <       5.34148423 Ry

     total magnetization       =    -0.00 Bohr mag/cell
     absolute magnetization    =     0.00 Bohr mag/cell

     iteration #  3     ecut=    40.00 Ry     beta= 0.50
     Davidson diagonalization with overlap
     ethr =  9.45E-03,  avg # of iterations =  2.0
     Minimization algorithm failed to find Fermi energy: reverting to bisection
     Possible cause: smearing is larger than the electronic band-gap.

     total cpu time spent up to now is        0.9 secs

     total energy              =    -403.78551426 Ry
     estimated scf accuracy    <       1.14800731 Ry

     total magnetization       =    -0.00 Bohr mag/cell
     absolute magnetization    =     0.00 Bohr mag/cell

     iteration #  4     ecut=    40.00 Ry     beta= 0.50
     Davidson diagonalization with overlap
     ethr =  6.04E-03,  avg # of iterations =  1.0
     Minimization algorithm failed to find Fermi energy: reverting to bisection
     Possible cause: smearing is larger than the electronic band-gap.

     total cpu time spent up to now is        0.9 secs

     total energy              =    -403.80005643 Ry
     estimated scf accuracy    <       0.30536082 Ry

     total magnetization       =    -0.00 Bohr mag/cell
     absolute magnetization    =     0.00 Bohr mag/cell

     iteration #  5     ecut=    40.00 Ry     beta= 0.50
     Davidson diagonalization with overlap
     ethr =  1.61E-03,  avg # of iterations =  1.0
     Minimization algorithm failed to find Fermi energy: reverting to bisection
     Possible cause: smearing is larger than the electronic band-gap.

     total cpu time spent up to now is        0.9 secs

     total energy              =    -403.78738583 Ry
     estimated scf accuracy    <       0.14619847 Ry

     total magnetization       =    -0.00 Bohr mag/cell
     absolute magnetization    =     0.00 Bohr mag/cell

     iteration #  6     ecut=    40.00 Ry     beta= 0.50
     Davidson diagonalization with overlap
     ethr =  7.69E-04,  avg # of iterations =  1.0
     Minimization algorithm failed to find Fermi energy: reverting to bisection
     Possible cause: smearing is larger than the electronic band-gap.

     total cpu time spent up to now is        1.0 secs

     total energy              =    -403.78881988 Ry
     estimated scf accuracy    <       0.06468168 Ry

     total magnetization       =    -0.00 Bohr mag/cell
     absolute magnetization    =     0.00 Bohr mag/cell

     iteration #  7     ecut=    40.00 Ry     beta= 0.50
     Davidson diagonalization with overlap
     ethr =  3.40E-04,  avg # of iterations =  1.0
     Minimization algorithm failed to find Fermi energy: reverting to bisection
     Possible cause: smearing is larger than the electronic band-gap.

     total cpu time spent up to now is        1.0 secs

     total energy              =    -403.78849272 Ry
     estimated scf accuracy    <       0.06054873 Ry

     total magnetization       =    -0.00 Bohr mag/cell
     absolute magnetization    =     0.00 Bohr mag/cell

     iteration #  8     ecut=    40.00 Ry     beta= 0.50
     Davidson diagonalization with overlap
     ethr =  3.19E-04,  avg # of iterations =  1.0
     Minimization algorithm failed to find Fermi energy: reverting to bisection
     Possible cause: smearing is larger than the electronic band-gap.

     total cpu time spent up to now is        1.0 secs

     total energy              =    -403.78883097 Ry
     estimated scf accuracy    <       0.05685537 Ry

     total magnetization       =    -0.00 Bohr mag/cell
     absolute magnetization    =     0.00 Bohr mag/cell

     iteration #  9     ecut=    40.00 Ry     beta= 0.50
     Davidson diagonalization with overlap
     ethr =  2.99E-04,  avg # of iterations =  1.0
     Minimization algorithm failed to find Fermi energy: reverting to bisection
     Possible cause: smearing is larger than the electronic band-gap.

     total cpu time spent up to now is        1.1 secs

     total energy              =    -403.78900499 Ry
     estimated scf accuracy    <       0.05868988 Ry

     total magnetization       =    -0.00 Bohr mag/cell
     absolute magnetization    =     0.00 Bohr mag/cell

     iteration # 10     ecut=    40.00 Ry     beta= 0.50
     Davidson diagonalization with overlap
     ethr =  2.99E-04,  avg # of iterations =  1.0
     Minimization algorithm failed to find Fermi energy: reverting to bisection
     Possible cause: smearing is larger than the electronic band-gap.

     total cpu time spent up to now is        1.1 secs

     total energy              =    -403.77435209 Ry
     estimated scf accuracy    <       0.05938546 Ry

     total magnetization       =    -0.00 Bohr mag/cell
     absolute magnetization    =     0.00 Bohr mag/cell

     iteration # 11     ecut=    40.00 Ry     beta= 0.50
     Davidson diagonalization with overlap
     ethr =  2.99E-04,  avg # of iterations =  1.0
     Minimization algorithm failed to find Fermi energy: reverting to bisection
     Possible cause: smearing is larger than the electronic band-gap.

     total cpu time spent up to now is        1.1 secs

     total energy              =    -403.77909347 Ry
     estimated scf accuracy    <       0.00587280 Ry

     total magnetization       =    -0.00 Bohr mag/cell
     absolute magnetization    =     0.00 Bohr mag/cell

     iteration # 12     ecut=    40.00 Ry     beta= 0.50
     Davidson diagonalization with overlap
     ethr =  3.09E-05,  avg # of iterations =  1.0
     Minimization algorithm failed to find Fermi energy: reverting to bisection
     Possible cause: smearing is larger than the electronic band-gap.

     total cpu time spent up to now is        1.2 secs

     total energy              =    -403.78038232 Ry
     estimated scf accuracy    <       0.00864867 Ry

     total magnetization       =    -0.00 Bohr mag/cell
     absolute magnetization    =     0.00 Bohr mag/cell

     iteration # 13     ecut=    40.00 Ry     beta= 0.50
     Davidson diagonalization with overlap
     ethr =  3.09E-05,  avg # of iterations =  1.0
     Minimization algorithm failed to find Fermi energy: reverting to bisection
     Possible cause: smearing is larger than the electronic band-gap.

     total cpu time spent up to now is        1.2 secs

     total energy              =    -403.78159563 Ry
     estimated scf accuracy    <       0.01418666 Ry

     total magnetization       =    -0.00 Bohr mag/cell
     absolute magnetization    =     0.00 Bohr mag/cell

     iteration # 14     ecut=    40.00 Ry     beta= 0.50
     Davidson diagonalization with overlap
     ethr =  3.09E-05,  avg # of iterations =  1.0
     Minimization algorithm failed to find Fermi energy: reverting to bisection
     Possible cause: smearing is larger than the electronic band-gap.

     total cpu time spent up to now is        1.2 secs

     total energy              =    -403.78390963 Ry
     estimated scf accuracy    <       0.01976696 Ry

     total magnetization       =    -0.00 Bohr mag/cell
     absolute magnetization    =     0.00 Bohr mag/cell

     iteration # 15     ecut=    40.00 Ry     beta= 0.50
     Davidson diagonalization with overlap
     ethr =  3.09E-05,  avg # of iterations =  1.0
     Minimization algorithm failed to find Fermi energy: reverting to bisection
     Possible cause: smearing is larger than the electronic band-gap.

     total cpu time spent up to now is        1.3 secs

     total energy              =    -403.78059421 Ry
     estimated scf accuracy    <       0.03054499 Ry

     total magnetization       =    -0.00 Bohr mag/cell
     absolute magnetization    =     0.00 Bohr mag/cell

     iteration # 16     ecut=    40.00 Ry     beta= 0.50
     Davidson diagonalization with overlap
     ethr =  3.09E-05,  avg # of iterations =  1.0
     Minimization algorithm failed to find Fermi energy: reverting to bisection
     Possible cause: smearing is larger than the electronic band-gap.

     total cpu time spent up to now is        1.3 secs

     total energy              =    -403.77723896 Ry
     estimated scf accuracy    <       0.01846017 Ry

     total magnetization       =    -0.00 Bohr mag/cell
     absolute magnetization    =     0.00 Bohr mag/cell

     iteration # 17     ecut=    40.00 Ry     beta= 0.50
     Davidson diagonalization with overlap
     ethr =  3.09E-05,  avg # of iterations =  1.8

     total cpu time spent up to now is        1.3 secs

     total energy              =    -403.77756426 Ry
     estimated scf accuracy    <       0.00388664 Ry

     total magnetization       =     0.00 Bohr mag/cell
     absolute magnetization    =     0.00 Bohr mag/cell

     iteration # 18     ecut=    40.00 Ry     beta= 0.50
     Davidson diagonalization with overlap
     ethr =  2.05E-05,  avg # of iterations =  1.2

     total cpu time spent up to now is        1.3 secs

     total energy              =    -403.77784164 Ry
     estimated scf accuracy    <       0.00027976 Ry

     total magnetization       =    -0.00 Bohr mag/cell
     absolute magnetization    =     0.00 Bohr mag/cell

     iteration # 19     ecut=    40.00 Ry     beta= 0.50
     Davidson diagonalization with overlap
     ethr =  1.47E-06,  avg # of iterations =  2.0

     total cpu time spent up to now is        1.4 secs

     total energy              =    -403.77776773 Ry
     estimated scf accuracy    <       0.00024794 Ry

     total magnetization       =    -0.00 Bohr mag/cell
     absolute magnetization    =     0.00 Bohr mag/cell

     iteration # 20     ecut=    40.00 Ry     beta= 0.50
     Davidson diagonalization with overlap
     ethr =  1.30E-06,  avg # of iterations =  2.0

     total cpu time spent up to now is        1.4 secs

     total energy              =    -403.77781158 Ry
     estimated scf accuracy    <       0.00002313 Ry

     total magnetization       =    -0.00 Bohr mag/cell
     absolute magnetization    =     0.00 Bohr mag/cell

     iteration # 21     ecut=    40.00 Ry     beta= 0.50
     Davidson diagonalization with overlap
     ethr =  1.22E-07,  avg # of iterations =  2.0

     total cpu time spent up to now is        1.4 secs

     total energy              =    -403.77781427 Ry
     estimated scf accuracy    <       0.00000147 Ry

     total magnetization       =    -0.00 Bohr mag/cell
     absolute magnetization    =     0.00 Bohr mag/cell

     iteration # 22     ecut=    40.00 Ry     beta= 0.50
     Davidson diagonalization with overlap
     ethr =  7.71E-09,  avg # of iterations =  2.0

     total cpu time spent up to now is        1.5 secs

     total energy              =    -403.77781446 Ry
     estimated scf accuracy    <       0.00001233 Ry

     total magnetization       =    -0.00 Bohr mag/cell
     absolute magnetization    =     0.00 Bohr mag/cell

     iteration # 23     ecut=    40.00 Ry     beta= 0.50
     Davidson diagonalization with overlap
     ethr =  7.71E-09,  avg # of iterations =  1.6

     total cpu time spent up to now is        1.5 secs

     total energy              =    -403.77781344 Ry
     estimated scf accuracy    <       0.00000552 Ry

     total magnetization       =    -0.00 Bohr mag/cell
     absolute magnetization    =     0.00 Bohr mag/cell

     iteration # 24     ecut=    40.00 Ry     beta= 0.50
     Davidson diagonalization with overlap
     ethr =  7.71E-09,  avg # of iterations =  2.0

     total cpu time spent up to now is        1.5 secs

     total energy              =    -403.77781374 Ry
     estimated scf accuracy    <       0.00000047 Ry

     total magnetization       =    -0.00 Bohr mag/cell
     absolute magnetization    =     0.00 Bohr mag/cell

     iteration # 25     ecut=    40.00 Ry     beta= 0.50
     Davidson diagonalization with overlap
     ethr =  2.47E-09,  avg # of iterations =  1.6

     total cpu time spent up to now is        1.6 secs

     total energy              =    -403.77781379 Ry
     estimated scf accuracy    <       0.00000001 Ry

     total magnetization       =    -0.00 Bohr mag/cell
     absolute magnetization    =     0.00 Bohr mag/cell

     iteration # 26     ecut=    40.00 Ry     beta= 0.50
     Davidson diagonalization with overlap
     ethr =  5.53E-11,  avg # of iterations =  2.2
 
     Magnetic moment per site  (integrated on atomic sphere of radius R)
     atom   1 (R=0.413)  charge= 17.7882  magn= -0.0000

     total cpu time spent up to now is        1.6 secs

     End of self-consistent calculation

 ------ SPIN UP ------------


          k = 0.0876 0.0876 0.0876 (   335 PWs)   bands (ev):

   -96.8173 -54.1704 -54.1580 -54.1580   6.9270  12.6242  12.8248  12.8248
    13.5084  13.5084  34.2089  38.5994  39.3160  39.3160

          k = 0.2629 0.2629-0.0876 (   339 PWs)   bands (ev):

   -96.8102 -54.2184 -54.1770 -54.1647   9.5306  12.3405  12.7724  13.0061
    13.4837  14.1800  26.3474  31.6385  38.7993  39.3314

          k =-0.2629-0.2629 0.4381 (   341 PWs)   bands (ev):

   -96.8060 -54.2493 -54.1796 -54.1743  10.9348  12.4973  12.8800  13.0508
    14.1128  15.7757  19.9855  32.8561  34.5922  36.1052

          k =-0.0876-0.0876 0.2629 (   335 PWs)   bands (ev):

   -96.8132 -54.1960 -54.1676 -54.1660   8.3264  12.3110  12.9362  13.0491
    13.4197  13.7351  30.3256  34.8174  36.1523  38.5496

          k = 0.4381 0.0876 0.0876 (   333 PWs)   bands (ev):

   -96.8073 -54.2252 -54.1838 -54.1811  10.4267  11.8376  12.8991  13.4719
    14.0231  14.2759  27.3927  30.5766  31.2804  34.9176

          k =-0.0876-0.4381 0.6134 (   341 PWs)   bands (ev):

   -96.8031 -54.2335 -54.2108 -54.1887  11.5808  11.8460  12.6216  13.5609
    14.1278  18.9194  21.9030  25.2439  27.4417  38.5978

          k = 0.0876-0.2629 0.4381 (   338 PWs)   bands (ev):

   -96.8060 -54.2338 -54.1931 -54.1761  11.1067  12.1458  12.4562  13.2659
    13.8735  15.5164  23.5054  28.8954  31.7684  39.1838

          k =-0.6134 0.0876 0.0876 (   338 PWs)   bands (ev):

   -96.8031 -54.2437 -54.1982 -54.1907  11.0601  11.5062  13.6115  13.8818
    14.1842  16.9193  24.2407  25.7013  29.2830  34.1821

          k = 0.2629 0.2629 0.2629 (   338 PWs)   bands (ev):

   -96.8085 -54.2407 -54.1687 -54.1687  10.2033  12.7648  12.7648  13.0892
    13.9409  13.9409  22.4105  36.9386  37.4757  37.4757

          k =-0.2629-0.2629 0.7886 (   343 PWs)   bands (ev):

   -96.8043 -54.2362 -54.2062 -54.1783  11.5670  12.0742  12.5753  13.2597
    13.9203  17.7385  20.7932  26.4350  33.0534  35.6229

 ------ SPIN DOWN ----------


          k = 0.0876 0.0876 0.0876 (   335 PWs)   bands (ev):

   -96.8173 -54.1704 -54.1580 -54.1580   6.9270  12.6242  12.8248  12.8248
    13.5084  13.5084  34.2089  38.5994  39.3160  39.3160

          k = 0.2629 0.2629-0.0876 (   339 PWs)   bands (ev):

   -96.8102 -54.2184 -54.1771 -54.1647   9.5306  12.3405  12.7724  13.0061
    13.4837  14.1800  26.3474  31.6385  38.7993  39.3314

          k =-0.2629-0.2629 0.4381 (   341 PWs)   bands (ev):

   -96.8060 -54.2493 -54.1796 -54.1743  10.9348  12.4973  12.8800  13.0508
    14.1128  15.7757  19.9855  32.8561  34.5922  36.1052

          k =-0.0876-0.0876 0.2629 (   335 PWs)   bands (ev):

   -96.8132 -54.1960 -54.1676 -54.1660   8.3264  12.3110  12.9362  13.0491
    13.4197  13.7351  30.3256  34.8174  36.1523  38.5496

          k = 0.4381 0.0876 0.0876 (   333 PWs)   bands (ev):

   -96.8073 -54.2252 -54.1838 -54.1811  10.4267  11.8376  12.8991  13.4719
    14.0231  14.2759  27.3927  30.5766  31.2804  34.9176

          k =-0.0876-0.4381 0.6134 (   341 PWs)   bands (ev):

   -96.8031 -54.2335 -54.2108 -54.1887  11.5808  11.8460  12.6216  13.5609
    14.1278  18.9194  21.9030  25.2439  27.4417  38.5978

          k = 0.0876-0.2629 0.4381 (   338 PWs)   bands (ev):

   -96.8060 -54.2338 -54.1931 -54.1761  11.1067  12.1458  12.4562  13.2659
    13.8735  15.5164  23.5054  28.8954  31.7684  39.1838

          k =-0.6134 0.0876 0.0876 (   338 PWs)   bands (ev):

   -96.8031 -54.2437 -54.1982 -54.1907  11.0601  11.5062  13.6115  13.8818
    14.1842  16.9193  24.2407  25.7013  29.2830  34.1821

          k = 0.2629 0.2629 0.2629 (   338 PWs)   bands (ev):

   -96.8085 -54.2407 -54.1687 -54.1687  10.2033  12.7648  12.7648  13.0892
    13.9409  13.9409  22.4105  36.9386  37.4757  37.4757

          k =-0.2629-0.2629 0.7886 (   343 PWs)   bands (ev):

   -96.8043 -54.2362 -54.2062 -54.1783  11.5670  12.0742  12.5753  13.2597
    13.9203  17.7385  20.7932  26.4350  33.0534  35.6229

     the Fermi energy is    15.5792 ev

!    total energy              =    -403.77781380 Ry
     estimated scf accuracy    <          1.2E-09 Ry
     smearing contrib. (-TS)   =      -0.00014101 Ry
     internal energy E=F+TS    =    -403.77767279 Ry

     The total energy is F=E-TS. E is the sum of the following terms:
     one-electron contribution =    -271.35148791 Ry
     hartree contribution      =     146.91478164 Ry
     xc contribution           =     -38.81038227 Ry
     ewald contribution        =    -240.53058424 Ry

     total magnetization       =    -0.00 Bohr mag/cell
     absolute magnetization    =     0.00 Bohr mag/cell

     convergence has been achieved in  26 iterations

     Forces acting on atoms (cartesian axes, Ry/au):

     atom    1 type  1   force =     0.00000000    0.00000000    0.00000000
     The non-local contrib.  to forces
     atom    1 type  1   force =     0.00000000   -0.00000000   -0.00000000
     The ionic contribution  to forces
     atom    1 type  1   force =     0.00000000    0.00000000    0.00000000
     The local contribution  to forces
     atom    1 type  1   force =     0.00000000    0.00000000   -0.00000000
     The core correction contribution to forces
     atom    1 type  1   force =     0.00000000    0.00000000   -0.00000000
     The Hubbard contrib.    to forces
     atom    1 type  1   force =     0.00000000    0.00000000    0.00000000
     The SCF correction term to forces
     atom    1 type  1   force =    -0.00000000   -0.00000000    0.00000000

     Total force =     0.000000     Total SCF correction =     0.000000


     Computing stress (Cartesian axis) and pressure

          total   stress  (Ry/bohr**3)                   (kbar)     P=        1.19
   0.00000807   0.00000000  -0.00000000            1.19        0.00       -0.00
   0.00000000   0.00000807  -0.00000000            0.00        1.19       -0.00
  -0.00000000  -0.00000000   0.00000807           -0.00       -0.00        1.19

     Energy error            =      3.5E-04 Ry
     Gradient error          =      0.0E+00 Ry/Bohr
     Cell gradient error     =      1.2E+00 kbar

     number of scf cycles    =   2
     number of bfgs steps    =   1

     enthalpy           old  =    -403.7774674042 Ry
     enthalpy           new  =    -403.7778137967 Ry

     CASE: enthalpy          _new < enthalpy          _old

     new trust radius        =       0.0003761844 bohr
     new conv_thr            =            1.0E-10 Ry

     new unit-cell volume =     81.50815 a.u.^3 (    12.07826 Ang^3 )
     density =      8.73641 g/cm^3

CELL_PARAMETERS (angstrom)
   0.000000000   1.821062317   1.821062317
   1.821062317  -0.000000000   1.821062317
   1.821062317   1.821062317   0.000000000

ATOMIC_POSITIONS (angstrom)
Cu            0.0000000000        0.0000000000        0.0000000000



     Writing config-only to output data dir ./output/opt.save/
     NEW-OLD atomic charge density approx. for the potential

     Check: negative core charge=   -0.000001
     extrapolated charge   19.01125, renormalised to   19.00000
     Generating pointlists ...

     total cpu time spent up to now is        1.7 secs

     Self-consistent Calculation

     iteration #  1     ecut=    40.00 Ry     beta= 0.50
     Davidson diagonalization with overlap
     ethr =  1.00E-06,  avg # of iterations =  2.3

     total cpu time spent up to now is        1.7 secs

     total energy              =    -403.77696405 Ry
     estimated scf accuracy    <       0.00094193 Ry

     total magnetization       =    -0.00 Bohr mag/cell
     absolute magnetization    =     0.00 Bohr mag/cell

     iteration #  2     ecut=    40.00 Ry     beta= 0.50
     Davidson diagonalization with overlap
     ethr =  4.96E-06,  avg # of iterations =  3.0
     Minimization algorithm failed to find Fermi energy: reverting to bisection
     Possible cause: smearing is larger than the electronic band-gap.

     total cpu time spent up to now is        1.8 secs

     total energy              =    -403.77748420 Ry
     estimated scf accuracy    <       0.00563239 Ry

     total magnetization       =    -0.00 Bohr mag/cell
     absolute magnetization    =     0.00 Bohr mag/cell

     iteration #  3     ecut=    40.00 Ry     beta= 0.50
     Davidson diagonalization with overlap
     ethr =  4.96E-06,  avg # of iterations =  2.0

     total cpu time spent up to now is        1.8 secs

     total energy              =    -403.77769421 Ry
     estimated scf accuracy    <       0.00052726 Ry

     total magnetization       =    -0.00 Bohr mag/cell
     absolute magnetization    =     0.00 Bohr mag/cell

     iteration #  4     ecut=    40.00 Ry     beta= 0.50
     Davidson diagonalization with overlap
     ethr =  2.78E-06,  avg # of iterations =  2.0

     total cpu time spent up to now is        1.8 secs

     total energy              =    -403.77779523 Ry
     estimated scf accuracy    <       0.00002868 Ry

     total magnetization       =    -0.00 Bohr mag/cell
     absolute magnetization    =     0.00 Bohr mag/cell

     iteration #  5     ecut=    40.00 Ry     beta= 0.50
     Davidson diagonalization with overlap
     ethr =  1.51E-07,  avg # of iterations =  3.0

     total cpu time spent up to now is        1.9 secs

     total energy              =    -403.77784978 Ry
     estimated scf accuracy    <       0.00029228 Ry

     total magnetization       =    -0.00 Bohr mag/cell
     absolute magnetization    =     0.00 Bohr mag/cell

     iteration #  6     ecut=    40.00 Ry     beta= 0.50
     Davidson diagonalization with overlap
     ethr =  1.51E-07,  avg # of iterations =  1.0

     total cpu time spent up to now is        1.9 secs

     total energy              =    -403.77780905 Ry
     estimated scf accuracy    <       0.00020047 Ry

     total magnetization       =    -0.00 Bohr mag/cell
     absolute magnetization    =     0.00 Bohr mag/cell

     iteration #  7     ecut=    40.00 Ry     beta= 0.50
     Davidson diagonalization with overlap
     ethr =  1.51E-07,  avg # of iterations =  2.0

     total cpu time spent up to now is        1.9 secs

     total energy              =    -403.77781156 Ry
     estimated scf accuracy    <       0.00003240 Ry

     total magnetization       =    -0.00 Bohr mag/cell
     absolute magnetization    =     0.00 Bohr mag/cell

     iteration #  8     ecut=    40.00 Ry     beta= 0.50
     Davidson diagonalization with overlap
     ethr =  1.51E-07,  avg # of iterations =  1.6

     total cpu time spent up to now is        2.0 secs

     total energy              =    -403.77781483 Ry
     estimated scf accuracy    <       0.00000111 Ry

     total magnetization       =    -0.00 Bohr mag/cell
     absolute magnetization    =     0.00 Bohr mag/cell

     iteration #  9     ecut=    40.00 Ry     beta= 0.50
     Davidson diagonalization with overlap
     ethr =  5.85E-09,  avg # of iterations =  2.0

     total cpu time spent up to now is        2.0 secs

     total energy              =    -403.77781498 Ry
     estimated scf accuracy    <       0.00000047 Ry

     total magnetization       =    -0.00 Bohr mag/cell
     absolute magnetization    =     0.00 Bohr mag/cell

     iteration # 10     ecut=    40.00 Ry     beta= 0.50
     Davidson diagonalization with overlap
     ethr =  2.50E-09,  avg # of iterations =  1.0

     total cpu time spent up to now is        2.0 secs

     total energy              =    -403.77781505 Ry
     estimated scf accuracy    <       0.00000051 Ry

     total magnetization       =    -0.00 Bohr mag/cell
     absolute magnetization    =     0.00 Bohr mag/cell

     iteration # 11     ecut=    40.00 Ry     beta= 0.50
     Davidson diagonalization with overlap
     ethr =  2.50E-09,  avg # of iterations =  1.0

     total cpu time spent up to now is        2.0 secs

     total energy              =    -403.77781504 Ry
     estimated scf accuracy    <       0.00000091 Ry

     total magnetization       =    -0.00 Bohr mag/cell
     absolute magnetization    =     0.00 Bohr mag/cell

     iteration # 12     ecut=    40.00 Ry     beta= 0.50
     Davidson diagonalization with overlap
     ethr =  2.50E-09,  avg # of iterations =  1.0

     total cpu time spent up to now is        2.1 secs

     total energy              =    -403.77781493 Ry
     estimated scf accuracy    <       0.00000082 Ry

     total magnetization       =    -0.00 Bohr mag/cell
     absolute magnetization    =     0.00 Bohr mag/cell

     iteration # 13     ecut=    40.00 Ry     beta= 0.50
     Davidson diagonalization with overlap
     ethr =  2.50E-09,  avg # of iterations =  1.0

     total cpu time spent up to now is        2.1 secs

     total energy              =    -403.77781497 Ry
     estimated scf accuracy    <       0.00000043 Ry

     total magnetization       =    -0.00 Bohr mag/cell
     absolute magnetization    =     0.00 Bohr mag/cell

     iteration # 14     ecut=    40.00 Ry     beta= 0.50
     Davidson diagonalization with overlap
     ethr =  2.24E-09,  avg # of iterations =  1.0

     total cpu time spent up to now is        2.1 secs

     total energy              =    -403.77781482 Ry
     estimated scf accuracy    <       0.00000074 Ry

     total magnetization       =    -0.00 Bohr mag/cell
     absolute magnetization    =     0.00 Bohr mag/cell

     iteration # 15     ecut=    40.00 Ry     beta= 0.50
     Davidson diagonalization with overlap
     ethr =  2.24E-09,  avg # of iterations =  1.0

     total cpu time spent up to now is        2.2 secs

     total energy              =    -403.77781489 Ry
     estimated scf accuracy    <       0.00000002 Ry

     total magnetization       =    -0.00 Bohr mag/cell
     absolute magnetization    =     0.00 Bohr mag/cell

     iteration # 16     ecut=    40.00 Ry     beta= 0.50
     Davidson diagonalization with overlap
     ethr =  1.24E-10,  avg # of iterations =  1.9

     total cpu time spent up to now is        2.2 secs

     total energy              =    -403.77781489 Ry
     estimated scf accuracy    <       0.00000002 Ry

     total magnetization       =    -0.00 Bohr mag/cell
     absolute magnetization    =     0.00 Bohr mag/cell

     iteration # 17     ecut=    40.00 Ry     beta= 0.50
     Davidson diagonalization with overlap
     ethr =  7.96E-11,  avg # of iterations =  1.0

     total cpu time spent up to now is        2.2 secs

     total energy              =    -403.77781489 Ry
     estimated scf accuracy    <          1.3E-09 Ry

     total magnetization       =    -0.00 Bohr mag/cell
     absolute magnetization    =     0.00 Bohr mag/cell

     iteration # 18     ecut=    40.00 Ry     beta= 0.50
     Davidson diagonalization with overlap
     ethr =  6.99E-12,  avg # of iterations =  1.4

     total cpu time spent up to now is        2.2 secs

     total energy              =    -403.77781489 Ry
     estimated scf accuracy    <          9.9E-10 Ry

     total magnetization       =    -0.00 Bohr mag/cell
     absolute magnetization    =     0.00 Bohr mag/cell

     iteration # 19     ecut=    40.00 Ry     beta= 0.50
     Davidson diagonalization with overlap
     ethr =  5.23E-12,  avg # of iterations =  1.0

     total cpu time spent up to now is        2.3 secs

     total energy              =    -403.77781489 Ry
     estimated scf accuracy    <          6.0E-10 Ry

     total magnetization       =    -0.00 Bohr mag/cell
     absolute magnetization    =     0.00 Bohr mag/cell

     iteration # 20     ecut=    40.00 Ry     beta= 0.50
     Davidson diagonalization with overlap
     ethr =  3.15E-12,  avg # of iterations =  1.0

     total cpu time spent up to now is        2.3 secs

     total energy              =    -403.77781489 Ry
     estimated scf accuracy    <          4.5E-10 Ry

     total magnetization       =    -0.00 Bohr mag/cell
     absolute magnetization    =     0.00 Bohr mag/cell

     iteration # 21     ecut=    40.00 Ry     beta= 0.50
     Davidson diagonalization with overlap
     ethr =  2.35E-12,  avg # of iterations =  1.0

     total cpu time spent up to now is        2.3 secs

     total energy              =    -403.77781489 Ry
     estimated scf accuracy    <          1.2E-10 Ry

     total magnetization       =     0.00 Bohr mag/cell
     absolute magnetization    =     0.00 Bohr mag/cell

     iteration # 22     ecut=    40.00 Ry     beta= 0.50
     Davidson diagonalization with overlap
     ethr =  6.13E-13,  avg # of iterations =  1.0
 
     Magnetic moment per site  (integrated on atomic sphere of radius R)
     atom   1 (R=0.413)  charge= 17.7876  magn=  0.0000

     total cpu time spent up to now is        2.4 secs

     End of self-consistent calculation

 ------ SPIN UP ------------


          k = 0.0876 0.0876 0.0876 (   335 PWs)   bands (ev):

   -96.8287 -54.1819 -54.1695 -54.1695   6.9187  12.6133  12.8137  12.8137
    13.4966  13.4966  34.1893  38.5802  39.2936  39.2936

          k = 0.2628 0.2628-0.0876 (   339 PWs)   bands (ev):

   -96.8217 -54.2298 -54.1886 -54.1763   9.5214  12.3299  12.7614  12.9948
    13.4720  14.1676  26.3299  31.6193  38.7792  39.3085

          k =-0.2628-0.2628 0.4380 (   341 PWs)   bands (ev):

   -96.8175 -54.2606 -54.1911 -54.1858  10.9252  12.4866  12.8689  13.0398
    14.1005  15.7632  19.9696  32.8369  34.5715  36.0851

          k =-0.0876-0.0876 0.2628 (   335 PWs)   bands (ev):

   -96.8246 -54.2075 -54.1791 -54.1775   8.3176  12.3005  12.9250  13.0378
    13.4080  13.7231  30.3069  34.7967  36.1334  38.5280

          k = 0.4380 0.0876 0.0876 (   333 PWs)   bands (ev):

   -96.8187 -54.2366 -54.1953 -54.1926  10.4173  11.8275  12.8879  13.4602
    14.0108  14.2636  27.3750  30.5578  31.2614  34.8974

          k =-0.0876-0.4380 0.6133 (   341 PWs)   bands (ev):

   -96.8146 -54.2448 -54.2222 -54.2002  11.5710  11.8359  12.6108  13.5491
    14.1154  18.9052  21.8873  25.2265  27.4239  38.5765

          k = 0.0876-0.2628 0.4380 (   338 PWs)   bands (ev):

   -96.8175 -54.2452 -54.2046 -54.1876  11.0970  12.1355  12.4455  13.2544
    13.8614  15.5032  23.4889  28.8772  31.7490  39.1623

          k =-0.6133 0.0876 0.0876 (   338 PWs)   bands (ev):

   -96.8146 -54.2551 -54.2096 -54.2022  11.0507  11.4964  13.5998  13.8697
    14.1718  16.9062  24.2235  25.6843  29.2650  34.1620

          k = 0.2628 0.2628 0.2628 (   338 PWs)   bands (ev):

   -96.8199 -54.2521 -54.1802 -54.1802  10.1940  12.7538  12.7538  13.0784
    13.9287  13.9287  22.3941  36.9209  37.4534  37.4534

          k =-0.2628-0.2628 0.7885 (   343 PWs)   bands (ev):

   -96.8158 -54.2475 -54.2177 -54.1898  11.5570  12.0640  12.5645  13.2482
    13.9081  17.7247  20.7776  26.4174  33.0335  35.6029

 ------ SPIN DOWN ----------


          k = 0.0876 0.0876 0.0876 (   335 PWs)   bands (ev):

   -96.8287 -54.1819 -54.1695 -54.1695   6.9187  12.6133  12.8137  12.8137
    13.4966  13.4966  34.1893  38.5802  39.2936  39.2936

          k = 0.2628 0.2628-0.0876 (   339 PWs)   bands (ev):

   -96.8217 -54.2298 -54.1886 -54.1763   9.5214  12.3299  12.7614  12.9948
    13.4720  14.1676  26.3299  31.6193  38.7792  39.3085

          k =-0.2628-0.2628 0.4380 (   341 PWs)   bands (ev):

   -96.8175 -54.2606 -54.1911 -54.1858  10.9252  12.4866  12.8689  13.0398
    14.1005  15.7632  19.9696  32.8369  34.5715  36.0851

          k =-0.0876-0.0876 0.2628 (   335 PWs)   bands (ev):

   -96.8246 -54.2075 -54.1791 -54.1775   8.3176  12.3005  12.9250  13.0378
    13.4080  13.7231  30.3069  34.7967  36.1334  38.5280

          k = 0.4380 0.0876 0.0876 (   333 PWs)   bands (ev):

   -96.8187 -54.2366 -54.1953 -54.1926  10.4173  11.8275  12.8879  13.4602
    14.0108  14.2636  27.3750  30.5578  31.2614  34.8974

          k =-0.0876-0.4380 0.6133 (   341 PWs)   bands (ev):

   -96.8146 -54.2448 -54.2222 -54.2002  11.5710  11.8359  12.6108  13.5491
    14.1154  18.9052  21.8873  25.2265  27.4239  38.5765

          k = 0.0876-0.2628 0.4380 (   338 PWs)   bands (ev):

   -96.8175 -54.2452 -54.2046 -54.1876  11.0970  12.1355  12.4455  13.2544
    13.8614  15.5032  23.4889  28.8772  31.7490  39.1623

          k =-0.6133 0.0876 0.0876 (   338 PWs)   bands (ev):

   -96.8146 -54.2551 -54.2096 -54.2022  11.0507  11.4964  13.5998  13.8697
    14.1718  16.9062  24.2235  25.6843  29.2650  34.1620

          k = 0.2628 0.2628 0.2628 (   338 PWs)   bands (ev):

   -96.8199 -54.2521 -54.1802 -54.1802  10.1940  12.7538  12.7538  13.0784
    13.9287  13.9287  22.3941  36.9209  37.4534  37.4534

          k =-0.2628-0.2628 0.7885 (   343 PWs)   bands (ev):

   -96.8158 -54.2475 -54.2177 -54.1898  11.5570  12.0640  12.5645  13.2482
    13.9081  17.7247  20.7776  26.4174  33.0335  35.6029

     the Fermi energy is    15.5660 ev

!    total energy              =    -403.77781489 Ry
     estimated scf accuracy    <          7.6E-12 Ry
     smearing contrib. (-TS)   =      -0.00014165 Ry
     internal energy E=F+TS    =    -403.77767324 Ry

     The total energy is F=E-TS. E is the sum of the following terms:
     one-electron contribution =    -271.43701301 Ry
     hartree contribution      =     146.94997532 Ry
     xc contribution           =     -38.81016840 Ry
     ewald contribution        =    -240.48046715 Ry

     total magnetization       =     0.00 Bohr mag/cell
     absolute magnetization    =     0.00 Bohr mag/cell

     convergence has been achieved in  22 iterations

     Forces acting on atoms (cartesian axes, Ry/au):

     atom    1 type  1   force =     0.00000000    0.00000000    0.00000000
     The non-local contrib.  to forces
     atom    1 type  1   force =     0.00000000   -0.00000000   -0.00000000
     The ionic contribution  to forces
     atom    1 type  1   force =     0.00000000    0.00000000    0.00000000
     The local contribution  to forces
     atom    1 type  1   force =     0.00000000    0.00000000    0.00000000
     The core correction contribution to forces
     atom    1 type  1   force =     0.00000000    0.00000000   -0.00000000
     The Hubbard contrib.    to forces
     atom    1 type  1   force =     0.00000000    0.00000000    0.00000000
     The SCF correction term to forces
     atom    1 type  1   force =    -0.00000000    0.00000000    0.00000000

     Total force =     0.000000     Total SCF correction =     0.000000


     Computing stress (Cartesian axis) and pressure

          total   stress  (Ry/bohr**3)                   (kbar)     P=        2.85
   0.00001934   0.00000000   0.00000000            2.85        0.00        0.00
   0.00000000   0.00001934   0.00000000            0.00        2.85        0.00
   0.00000000   0.00000000   0.00001934            0.00        0.00        2.85

     Energy error            =      1.1E-06 Ry
     Gradient error          =      0.0E+00 Ry/Bohr
     Cell gradient error     =      2.8E+00 kbar

     number of scf cycles    =   3
     number of bfgs steps    =   2

     enthalpy           old  =    -403.7778137967 Ry
     enthalpy           new  =    -403.7778148903 Ry

     CASE: enthalpy          _new < enthalpy          _old


     WARNING: bfgs curvature condition failed, Theta= 0.334
     new trust radius        =       0.0004138460 bohr
     new conv_thr            =            1.0E-10 Ry

     new unit-cell volume =     81.56420 a.u.^3 (    12.08657 Ang^3 )
     density =      8.73040 g/cm^3

CELL_PARAMETERS (angstrom)
   0.000000000   1.821479698   1.821479698
   1.821479698  -0.000000000   1.821479698
   1.821479698   1.821479698   0.000000000

ATOMIC_POSITIONS (angstrom)
Cu            0.0000000000        0.0000000000        0.0000000000



     Writing config-only to output data dir ./output/opt.save/
     NEW-OLD atomic charge density approx. for the potential

     Check: negative core charge=   -0.000001
     extrapolated charge   19.01237, renormalised to   19.00000
     Generating pointlists ...

     total cpu time spent up to now is        2.4 secs

     Self-consistent Calculation

     iteration #  1     ecut=    40.00 Ry     beta= 0.50
     Davidson diagonalization with overlap
     ethr =  1.00E-06,  avg # of iterations =  2.5

     total cpu time spent up to now is        2.5 secs

     total energy              =    -403.77677392 Ry
     estimated scf accuracy    <       0.00115603 Ry

     total magnetization       =     0.00 Bohr mag/cell
     absolute magnetization    =     0.00 Bohr mag/cell

     iteration #  2     ecut=    40.00 Ry     beta= 0.50
     Davidson diagonalization with overlap
     ethr =  6.08E-06,  avg # of iterations =  3.0
     Minimization algorithm failed to find Fermi energy: reverting to bisection
     Possible cause: smearing is larger than the electronic band-gap.

     total cpu time spent up to now is        2.5 secs

     total energy              =    -403.77741000 Ry
     estimated scf accuracy    <       0.00688342 Ry

     total magnetization       =     0.00 Bohr mag/cell
     absolute magnetization    =     0.00 Bohr mag/cell

     iteration #  3     ecut=    40.00 Ry     beta= 0.50
     Davidson diagonalization with overlap
     ethr =  6.08E-06,  avg # of iterations =  2.0

     total cpu time spent up to now is        2.5 secs

     total energy              =    -403.77765418 Ry
     estimated scf accuracy    <       0.00064174 Ry

     total magnetization       =     0.00 Bohr mag/cell
     absolute magnetization    =     0.00 Bohr mag/cell

     iteration #  4     ecut=    40.00 Ry     beta= 0.50
     Davidson diagonalization with overlap
     ethr =  3.38E-06,  avg # of iterations =  2.0

     total cpu time spent up to now is        2.6 secs

     total energy              =    -403.77777831 Ry
     estimated scf accuracy    <       0.00006367 Ry

     total magnetization       =     0.00 Bohr mag/cell
     absolute magnetization    =     0.00 Bohr mag/cell

     iteration #  5     ecut=    40.00 Ry     beta= 0.50
     Davidson diagonalization with overlap
     ethr =  3.35E-07,  avg # of iterations =  2.0

     total cpu time spent up to now is        2.6 secs

     total energy              =    -403.77781622 Ry
     estimated scf accuracy    <       0.00028002 Ry

     total magnetization       =     0.00 Bohr mag/cell
     absolute magnetization    =     0.00 Bohr mag/cell

     iteration #  6     ecut=    40.00 Ry     beta= 0.50
     Davidson diagonalization with overlap
     ethr =  3.35E-07,  avg # of iterations =  1.4

     total cpu time spent up to now is        2.6 secs

     total energy              =    -403.77782561 Ry
     estimated scf accuracy    <       0.00006723 Ry

     total magnetization       =     0.00 Bohr mag/cell
     absolute magnetization    =     0.00 Bohr mag/cell

     iteration #  7     ecut=    40.00 Ry     beta= 0.50
     Davidson diagonalization with overlap
     ethr =  3.35E-07,  avg # of iterations =  1.0

     total cpu time spent up to now is        2.7 secs

     total energy              =    -403.77783135 Ry
     estimated scf accuracy    <       0.00005661 Ry

     total magnetization       =     0.00 Bohr mag/cell
     absolute magnetization    =     0.00 Bohr mag/cell

     iteration #  8     ecut=    40.00 Ry     beta= 0.50
     Davidson diagonalization with overlap
     ethr =  2.98E-07,  avg # of iterations =  1.0

     total cpu time spent up to now is        2.7 secs

     total energy              =    -403.77780112 Ry
     estimated scf accuracy    <       0.00008800 Ry

     total magnetization       =     0.00 Bohr mag/cell
     absolute magnetization    =     0.00 Bohr mag/cell

     iteration #  9     ecut=    40.00 Ry     beta= 0.50
     Davidson diagonalization with overlap
     ethr =  2.98E-07,  avg # of iterations =  2.0

     total cpu time spent up to now is        2.7 secs

     total energy              =    -403.77781554 Ry
     estimated scf accuracy    <       0.00000021 Ry

     total magnetization       =     0.00 Bohr mag/cell
     absolute magnetization    =     0.00 Bohr mag/cell

     iteration # 10     ecut=    40.00 Ry     beta= 0.50
     Davidson diagonalization with overlap
     ethr =  1.11E-09,  avg # of iterations =  2.9

     total cpu time spent up to now is        2.8 secs

     total energy              =    -403.77781584 Ry
     estimated scf accuracy    <       0.00000005 Ry

     total magnetization       =     0.00 Bohr mag/cell
     absolute magnetization    =     0.00 Bohr mag/cell

     iteration # 11     ecut=    40.00 Ry     beta= 0.50
     Davidson diagonalization with overlap
     ethr =  2.89E-10,  avg # of iterations =  3.0

     total cpu time spent up to now is        2.8 secs

     total energy              =    -403.77781572 Ry
     estimated scf accuracy    <       0.00000217 Ry

     total magnetization       =     0.00 Bohr mag/cell
     absolute magnetization    =     0.00 Bohr mag/cell

     iteration # 12     ecut=    40.00 Ry     beta= 0.50
     Davidson diagonalization with overlap
     ethr =  2.89E-10,  avg # of iterations =  2.3

     total cpu time spent up to now is        2.8 secs

     total energy              =    -403.77781576 Ry
     estimated scf accuracy    <       0.00000062 Ry

     total magnetization       =     0.00 Bohr mag/cell
     absolute magnetization    =     0.00 Bohr mag/cell

     iteration # 13     ecut=    40.00 Ry     beta= 0.50
     Davidson diagonalization with overlap
     ethr =  2.89E-10,  avg # of iterations =  1.2

     total cpu time spent up to now is        2.9 secs

     total energy              =    -403.77781561 Ry
     estimated scf accuracy    <       0.00000046 Ry

     total magnetization       =     0.00 Bohr mag/cell
     absolute magnetization    =     0.00 Bohr mag/cell

     iteration # 14     ecut=    40.00 Ry     beta= 0.50
     Davidson diagonalization with overlap
     ethr =  2.89E-10,  avg # of iterations =  2.7

     total cpu time spent up to now is        2.9 secs

     total energy              =    -403.77781570 Ry
     estimated scf accuracy    <       0.00000002 Ry

     total magnetization       =     0.00 Bohr mag/cell
     absolute magnetization    =     0.00 Bohr mag/cell

     iteration # 15     ecut=    40.00 Ry     beta= 0.50
     Davidson diagonalization with overlap
     ethr =  1.02E-10,  avg # of iterations =  1.0

     total cpu time spent up to now is        2.9 secs

     total energy              =    -403.77781570 Ry
     estimated scf accuracy    <          8.3E-09 Ry

     total magnetization       =     0.00 Bohr mag/cell
     absolute magnetization    =     0.00 Bohr mag/cell

     iteration # 16     ecut=    40.00 Ry     beta= 0.50
     Davidson diagonalization with overlap
     ethr =  4.35E-11,  avg # of iterations =  1.0

     total cpu time spent up to now is        3.0 secs

     total energy              =    -403.77781570 Ry
     estimated scf accuracy    <          2.3E-09 Ry

     total magnetization       =     0.00 Bohr mag/cell
     absolute magnetization    =     0.00 Bohr mag/cell

     iteration # 17     ecut=    40.00 Ry     beta= 0.50
     Davidson diagonalization with overlap
     ethr =  1.22E-11,  avg # of iterations =  1.0

     total cpu time spent up to now is        3.0 secs

     total energy              =    -403.77781570 Ry
     estimated scf accuracy    <          5.3E-10 Ry

     total magnetization       =     0.00 Bohr mag/cell
     absolute magnetization    =     0.00 Bohr mag/cell

     iteration # 18     ecut=    40.00 Ry     beta= 0.50
     Davidson diagonalization with overlap
     ethr =  2.80E-12,  avg # of iterations =  1.2
 
     Magnetic moment per site  (integrated on atomic sphere of radius R)
     atom   1 (R=0.413)  charge= 17.7869  magn=  0.0000

     total cpu time spent up to now is        3.0 secs

     End of self-consistent calculation

 ------ SPIN UP ------------


          k = 0.0876 0.0876 0.0876 (   335 PWs)   bands (ev):

   -96.8411 -54.1944 -54.1820 -54.1820   6.9096  12.6015  12.8016  12.8016
    13.4838  13.4838  34.1678  38.5591  39.2691  39.2691

          k = 0.2628 0.2628-0.0876 (   339 PWs)   bands (ev):

   -96.8340 -54.2421 -54.2010 -54.1888   9.5113  12.3185  12.7495  12.9825
    13.4592  14.1542  26.3108  31.5983  38.7571  39.2833

          k =-0.2628-0.2628 0.4379 (   341 PWs)   bands (ev):

   -96.8299 -54.2729 -54.2036 -54.1983  10.9148  12.4750  12.8568  13.0278
    14.0870  15.7495  19.9523  32.8158  34.5488  36.0630

          k =-0.0876-0.0876 0.2628 (   335 PWs)   bands (ev):

   -96.8370 -54.2199 -54.1916 -54.1900   8.3079  12.2890  12.9128  13.0255
    13.3954  13.7100  30.2864  34.7740  36.1125  38.5042

          k = 0.4379 0.0876 0.0876 (   333 PWs)   bands (ev):

   -96.8311 -54.2489 -54.2078 -54.2050  10.4070  11.8165  12.8759  13.4475
    13.9975  14.2502  27.3557  30.5372  31.2405  34.8752

          k =-0.0876-0.4379 0.6131 (   341 PWs)   bands (ev):

   -96.8270 -54.2571 -54.2346 -54.2126  11.5603  11.8250  12.5991  13.5363
    14.1020  18.8896  21.8702  25.2075  27.4043  38.5532

          k = 0.0876-0.2628 0.4379 (   338 PWs)   bands (ev):

   -96.8299 -54.2575 -54.2170 -54.2000  11.0864  12.1243  12.4339  13.2419
    13.8482  15.4889  23.4709  28.8571  31.7277  39.1388

          k =-0.6131 0.0876 0.0876 (   338 PWs)   bands (ev):

   -96.8270 -54.2673 -54.2220 -54.2146  11.0405  11.4857  13.5871  13.8565
    14.1583  16.8919  24.2046  25.6658  29.2453  34.1401

          k = 0.2628 0.2628 0.2628 (   338 PWs)   bands (ev):

   -96.8323 -54.2644 -54.1927 -54.1927  10.1838  12.7418  12.7418  13.0665
    13.9155  13.9155  22.3762  36.9014  37.4290  37.4290

          k =-0.2628-0.2628 0.7883 (   343 PWs)   bands (ev):

   -96.8282 -54.2598 -54.2301 -54.2022  11.5462  12.0529  12.5529  13.2357
    13.8949  17.7096  20.7605  26.3981  33.0116  35.5809

 ------ SPIN DOWN ----------


          k = 0.0876 0.0876 0.0876 (   335 PWs)   bands (ev):

   -96.8411 -54.1944 -54.1820 -54.1820   6.9096  12.6015  12.8016  12.8016
    13.4838  13.4838  34.1678  38.5591  39.2691  39.2691

          k = 0.2628 0.2628-0.0876 (   339 PWs)   bands (ev):

   -96.8340 -54.2421 -54.2010 -54.1888   9.5113  12.3185  12.7495  12.9825
    13.4592  14.1542  26.3108  31.5983  38.7571  39.2833

          k =-0.2628-0.2628 0.4379 (   341 PWs)   bands (ev):

   -96.8299 -54.2729 -54.2036 -54.1983  10.9148  12.4750  12.8568  13.0278
    14.0870  15.7495  19.9523  32.8158  34.5488  36.0630

          k =-0.0876-0.0876 0.2628 (   335 PWs)   bands (ev):

   -96.8370 -54.2199 -54.1916 -54.1900   8.3079  12.2890  12.9128  13.0255
    13.3954  13.7100  30.2864  34.7740  36.1125  38.5042

          k = 0.4379 0.0876 0.0876 (   333 PWs)   bands (ev):

   -96.8311 -54.2489 -54.2078 -54.2050  10.4070  11.8165  12.8759  13.4475
    13.9975  14.2502  27.3557  30.5372  31.2405  34.8752

          k =-0.0876-0.4379 0.6131 (   341 PWs)   bands (ev):

   -96.8270 -54.2571 -54.2346 -54.2126  11.5603  11.8250  12.5991  13.5363
    14.1020  18.8896  21.8702  25.2075  27.4043  38.5532

          k = 0.0876-0.2628 0.4379 (   338 PWs)   bands (ev):

   -96.8299 -54.2575 -54.2170 -54.2000  11.0864  12.1243  12.4339  13.2419
    13.8482  15.4889  23.4709  28.8571  31.7277  39.1388

          k =-0.6131 0.0876 0.0876 (   338 PWs)   bands (ev):

   -96.8270 -54.2673 -54.2220 -54.2146  11.0405  11.4857  13.5871  13.8565
    14.1583  16.8919  24.2046  25.6658  29.2453  34.1401

          k = 0.2628 0.2628 0.2628 (   338 PWs)   bands (ev):

   -96.8323 -54.2644 -54.1927 -54.1927  10.1838  12.7418  12.7418  13.0665
    13.9155  13.9155  22.3762  36.9014  37.4290  37.4290

          k =-0.2628-0.2628 0.7883 (   343 PWs)   bands (ev):

   -96.8282 -54.2598 -54.2301 -54.2022  11.5462  12.0529  12.5529  13.2357
    13.8949  17.7096  20.7605  26.3981  33.0116  35.5809

     the Fermi energy is    15.5517 ev

!    total energy              =    -403.77781570 Ry
     estimated scf accuracy    <          2.6E-12 Ry
     smearing contrib. (-TS)   =      -0.00014231 Ry
     internal energy E=F+TS    =    -403.77767339 Ry

     The total energy is F=E-TS. E is the sum of the following terms:
     one-electron contribution =    -271.53037854 Ry
     hartree contribution      =     146.98791817 Ry
     xc contribution           =     -38.80985056 Ry
     ewald contribution        =    -240.42536246 Ry

     total magnetization       =     0.00 Bohr mag/cell
     absolute magnetization    =     0.00 Bohr mag/cell

     convergence has been achieved in  18 iterations

     Forces acting on atoms (cartesian axes, Ry/au):

     atom    1 type  1   force =     0.00000000    0.00000000    0.00000000
     The non-local contrib.  to forces
     atom    1 type  1   force =    -0.00000000    0.00000000    0.00000000
     The ionic contribution  to forces
     atom    1 type  1   force =     0.00000000    0.00000000    0.00000000
     The local contribution  to forces
     atom    1 type  1   force =    -0.00000000    0.00000000    0.00000000
     The core correction contribution to forces
     atom    1 type  1   force =     0.00000000    0.00000000    0.00000000
     The Hubbard contrib.    to forces
     atom    1 type  1   force =     0.00000000    0.00000000    0.00000000
     The SCF correction term to forces
     atom    1 type  1   force =    -0.00000000   -0.00000000    0.00000000

     Total force =     0.000000     Total SCF correction =     0.000000


     Computing stress (Cartesian axis) and pressure

          total   stress  (Ry/bohr**3)                   (kbar)     P=        1.59
   0.00001082  -0.00000000   0.00000000            1.59       -0.00        0.00
   0.00000000   0.00001082  -0.00000000            0.00        1.59       -0.00
   0.00000000   0.00000000   0.00001082            0.00        0.00        1.59

     Energy error            =      8.1E-07 Ry
     Gradient error          =      0.0E+00 Ry/Bohr
     Cell gradient error     =      1.6E+00 kbar

     number of scf cycles    =   4
     number of bfgs steps    =   3

     enthalpy           old  =    -403.7778148903 Ry
     enthalpy           new  =    -403.7778156997 Ry

     CASE: enthalpy          _new < enthalpy          _old

     new trust radius        =       0.0005256942 bohr
     new conv_thr            =            1.0E-10 Ry

     new unit-cell volume =     81.63544 a.u.^3 (    12.09712 Ang^3 )
     density =      8.72279 g/cm^3

CELL_PARAMETERS (angstrom)
   0.000000000   1.822009823   1.822009823
   1.822009823  -0.000000000   1.822009823
   1.822009823   1.822009823   0.000000000

ATOMIC_POSITIONS (angstrom)
Cu            0.0000000000        0.0000000000        0.0000000000



     Writing config-only to output data dir ./output/opt.save/
     NEW-OLD atomic charge density approx. for the potential

     Check: negative core charge=   -0.000001
     extrapolated charge   19.01571, renormalised to   19.00000
     Generating pointlists ...

     total cpu time spent up to now is        3.1 secs

     Self-consistent Calculation

     iteration #  1     ecut=    40.00 Ry     beta= 0.50
     Davidson diagonalization with overlap
     ethr =  1.00E-06,  avg # of iterations =  3.0

     total cpu time spent up to now is        3.1 secs

     total energy              =    -403.77610294 Ry
     estimated scf accuracy    <       0.00190182 Ry

     total magnetization       =     0.00 Bohr mag/cell
     absolute magnetization    =     0.00 Bohr mag/cell

     iteration #  2     ecut=    40.00 Ry     beta= 0.50
     Davidson diagonalization with overlap
     ethr =  1.00E-05,  avg # of iterations =  3.0
     Minimization algorithm failed to find Fermi energy: reverting to bisection
     Possible cause: smearing is larger than the electronic band-gap.

     total cpu time spent up to now is        3.2 secs

     total energy              =    -403.77715185 Ry
     estimated scf accuracy    <       0.01129688 Ry

     total magnetization       =     0.00 Bohr mag/cell
     absolute magnetization    =     0.00 Bohr mag/cell

     iteration #  3     ecut=    40.00 Ry     beta= 0.50
     Davidson diagonalization with overlap
     ethr =  1.00E-05,  avg # of iterations =  2.0

     total cpu time spent up to now is        3.2 secs

     total energy              =    -403.77764610 Ry
     estimated scf accuracy    <       0.00105834 Ry

     total magnetization       =     0.00 Bohr mag/cell
     absolute magnetization    =     0.00 Bohr mag/cell

     iteration #  4     ecut=    40.00 Ry     beta= 0.50
     Davidson diagonalization with overlap
     ethr =  5.57E-06,  avg # of iterations =  2.0

     total cpu time spent up to now is        3.2 secs

     total energy              =    -403.77785473 Ry
     estimated scf accuracy    <       0.00000020 Ry

     total magnetization       =     0.00 Bohr mag/cell
     absolute magnetization    =     0.00 Bohr mag/cell

     iteration #  5     ecut=    40.00 Ry     beta= 0.50
     Davidson diagonalization with overlap
     ethr =  1.05E-09,  avg # of iterations =  5.3

     total cpu time spent up to now is        3.3 secs

     total energy              =    -403.77793500 Ry
     estimated scf accuracy    <       0.00104989 Ry

     total magnetization       =     0.00 Bohr mag/cell
     absolute magnetization    =     0.00 Bohr mag/cell

     iteration #  6     ecut=    40.00 Ry     beta= 0.50
     Davidson diagonalization with overlap
     ethr =  1.05E-09,  avg # of iterations =  4.0

     total cpu time spent up to now is        3.3 secs

     total energy              =    -403.77776680 Ry
     estimated scf accuracy    <       0.00068078 Ry

     total magnetization       =     0.00 Bohr mag/cell
     absolute magnetization    =     0.00 Bohr mag/cell

     iteration #  7     ecut=    40.00 Ry     beta= 0.50
     Davidson diagonalization with overlap
     ethr =  1.05E-09,  avg # of iterations =  5.3

     total cpu time spent up to now is        3.4 secs

     total energy              =    -403.77781386 Ry
     estimated scf accuracy    <       0.00004114 Ry

     total magnetization       =     0.00 Bohr mag/cell
     absolute magnetization    =     0.00 Bohr mag/cell

     iteration #  8     ecut=    40.00 Ry     beta= 0.50
     Davidson diagonalization with overlap
     ethr =  1.05E-09,  avg # of iterations =  3.5

     total cpu time spent up to now is        3.4 secs

     total energy              =    -403.77781569 Ry
     estimated scf accuracy    <       0.00000371 Ry

     total magnetization       =     0.00 Bohr mag/cell
     absolute magnetization    =     0.00 Bohr mag/cell

     iteration #  9     ecut=    40.00 Ry     beta= 0.50
     Davidson diagonalization with overlap
     ethr =  1.05E-09,  avg # of iterations =  2.8

     total cpu time spent up to now is        3.5 secs

     total energy              =    -403.77781626 Ry
     estimated scf accuracy    <       0.00000009 Ry

     total magnetization       =     0.00 Bohr mag/cell
     absolute magnetization    =     0.00 Bohr mag/cell

     iteration # 10     ecut=    40.00 Ry     beta= 0.50
     Davidson diagonalization with overlap
     ethr =  4.48E-10,  avg # of iterations =  3.0

     total cpu time spent up to now is        3.5 secs

     total energy              =    -403.77781643 Ry
     estimated scf accuracy    <       0.00000160 Ry

     total magnetization       =     0.00 Bohr mag/cell
     absolute magnetization    =     0.00 Bohr mag/cell

     iteration # 11     ecut=    40.00 Ry     beta= 0.50
     Davidson diagonalization with overlap
     ethr =  4.48E-10,  avg # of iterations =  1.0

     total cpu time spent up to now is        3.5 secs

     total energy              =    -403.77781596 Ry
     estimated scf accuracy    <       0.00000149 Ry

     total magnetization       =     0.00 Bohr mag/cell
     absolute magnetization    =     0.00 Bohr mag/cell

     iteration # 12     ecut=    40.00 Ry     beta= 0.50
     Davidson diagonalization with overlap
     ethr =  4.48E-10,  avg # of iterations =  2.8

     total cpu time spent up to now is        3.6 secs

     total energy              =    -403.77781614 Ry
     estimated scf accuracy    <       0.00000002 Ry

     total magnetization       =     0.00 Bohr mag/cell
     absolute magnetization    =     0.00 Bohr mag/cell

     iteration # 13     ecut=    40.00 Ry     beta= 0.50
     Davidson diagonalization with overlap
     ethr =  7.93E-11,  avg # of iterations =  1.0

     total cpu time spent up to now is        3.6 secs

     total energy              =    -403.77781613 Ry
     estimated scf accuracy    <          7.1E-09 Ry

     total magnetization       =     0.00 Bohr mag/cell
     absolute magnetization    =     0.00 Bohr mag/cell

     iteration # 14     ecut=    40.00 Ry     beta= 0.50
     Davidson diagonalization with overlap
     ethr =  3.72E-11,  avg # of iterations =  2.0

     total cpu time spent up to now is        3.6 secs

     total energy              =    -403.77781614 Ry
     estimated scf accuracy    <          1.1E-09 Ry

     total magnetization       =     0.00 Bohr mag/cell
     absolute magnetization    =     0.00 Bohr mag/cell

     iteration # 15     ecut=    40.00 Ry     beta= 0.50
     Davidson diagonalization with overlap
     ethr =  5.83E-12,  avg # of iterations =  1.0

     total cpu time spent up to now is        3.7 secs

     total energy              =    -403.77781614 Ry
     estimated scf accuracy    <          1.2E-09 Ry

     total magnetization       =     0.00 Bohr mag/cell
     absolute magnetization    =     0.00 Bohr mag/cell

     iteration # 16     ecut=    40.00 Ry     beta= 0.50
     Davidson diagonalization with overlap
     ethr =  5.83E-12,  avg # of iterations =  1.0

     total cpu time spent up to now is        3.7 secs

     total energy              =    -403.77781614 Ry
     estimated scf accuracy    <          3.7E-10 Ry

     total magnetization       =     0.00 Bohr mag/cell
     absolute magnetization    =     0.00 Bohr mag/cell

     iteration # 17     ecut=    40.00 Ry     beta= 0.50
     Davidson diagonalization with overlap
     ethr =  1.95E-12,  avg # of iterations =  1.0

     total cpu time spent up to now is        3.7 secs

     total energy              =    -403.77781614 Ry
     estimated scf accuracy    <          4.2E-10 Ry

     total magnetization       =     0.00 Bohr mag/cell
     absolute magnetization    =     0.00 Bohr mag/cell

     iteration # 18     ecut=    40.00 Ry     beta= 0.50
     Davidson diagonalization with overlap
     ethr =  1.95E-12,  avg # of iterations =  1.0

     total cpu time spent up to now is        3.7 secs

     total energy              =    -403.77781614 Ry
     estimated scf accuracy    <          3.8E-10 Ry

     total magnetization       =     0.00 Bohr mag/cell
     absolute magnetization    =     0.00 Bohr mag/cell

     iteration # 19     ecut=    40.00 Ry     beta= 0.50
     Davidson diagonalization with overlap
     ethr =  1.95E-12,  avg # of iterations =  2.0

     total cpu time spent up to now is        3.8 secs

     total energy              =    -403.77781614 Ry
     estimated scf accuracy    <          2.2E-09 Ry

     total magnetization       =     0.00 Bohr mag/cell
     absolute magnetization    =     0.00 Bohr mag/cell

     iteration # 20     ecut=    40.00 Ry     beta= 0.50
     Davidson diagonalization with overlap
[...]
     Generating pointlists ...

     Initial potential from superposition of free atoms

     starting charge      18.0000, renormalised to      19.0000
     Starting wfcs are   13 randomized atomic wfcs +    1 random wfcs

     total cpu time spent up to now is        4.6 secs

     Self-consistent Calculation

     iteration #  1     ecut=    40.00 Ry     beta= 0.50
     Davidson diagonalization with overlap
     ethr =  1.00E-06,  avg # of iterations = 11.1

     total cpu time spent up to now is        4.7 secs

     total energy              =    -401.01619602 Ry
     estimated scf accuracy    <       5.46944173 Ry

     total magnetization       =     0.00 Bohr mag/cell
     absolute magnetization    =     0.00 Bohr mag/cell

     iteration #  2     ecut=    40.00 Ry     beta= 0.50
     Davidson diagonalization with overlap
     ethr =  1.00E-02,  avg # of iterations =  3.0
     Minimization algorithm failed to find Fermi energy: reverting to bisection
     Possible cause: smearing is larger than the electronic band-gap.

     total cpu time spent up to now is        4.7 secs

     total energy              =    -403.20651686 Ry
     estimated scf accuracy    <       6.00634772 Ry

     total magnetization       =     0.00 Bohr mag/cell
     absolute magnetization    =     0.00 Bohr mag/cell

     iteration #  3     ecut=    40.00 Ry     beta= 0.50
     Davidson diagonalization with overlap
     ethr =  1.00E-02,  avg # of iterations =  2.0
     Minimization algorithm failed to find Fermi energy: reverting to bisection
     Possible cause: smearing is larger than the electronic band-gap.

     total cpu time spent up to now is        4.8 secs

     total energy              =    -403.78947094 Ry
     estimated scf accuracy    <       0.34939657 Ry

     total magnetization       =     0.00 Bohr mag/cell
     absolute magnetization    =     0.00 Bohr mag/cell

     iteration #  4     ecut=    40.00 Ry     beta= 0.50
     Davidson diagonalization with overlap
     ethr =  1.84E-03,  avg # of iterations =  1.0
     Minimization algorithm failed to find Fermi energy: reverting to bisection
     Possible cause: smearing is larger than the electronic band-gap.

     total cpu time spent up to now is        4.8 secs

     total energy              =    -403.81320050 Ry
     estimated scf accuracy    <       0.12345739 Ry

     total magnetization       =     0.00 Bohr mag/cell
     absolute magnetization    =     0.00 Bohr mag/cell

     iteration #  5     ecut=    40.00 Ry     beta= 0.50
     Davidson diagonalization with overlap
     ethr =  6.50E-04,  avg # of iterations =  1.0
     Minimization algorithm failed to find Fermi energy: reverting to bisection
     Possible cause: smearing is larger than the electronic band-gap.

     total cpu time spent up to now is        4.8 secs

     total energy              =    -403.74514218 Ry
     estimated scf accuracy    <       0.20224704 Ry

     total magnetization       =     0.00 Bohr mag/cell
     absolute magnetization    =     0.00 Bohr mag/cell

     iteration #  6     ecut=    40.00 Ry     beta= 0.50
     Davidson diagonalization with overlap
     ethr =  6.50E-04,  avg # of iterations =  2.0

     total cpu time spent up to now is        4.9 secs

     total energy              =    -403.77813617 Ry
     estimated scf accuracy    <       0.00144049 Ry

     total magnetization       =     0.00 Bohr mag/cell
     absolute magnetization    =     0.00 Bohr mag/cell

     iteration #  7     ecut=    40.00 Ry     beta= 0.50
     Davidson diagonalization with overlap
     ethr =  7.58E-06,  avg # of iterations =  2.2

     total cpu time spent up to now is        4.9 secs

     total energy              =    -403.77754405 Ry
     estimated scf accuracy    <       0.00181077 Ry

     total magnetization       =     0.00 Bohr mag/cell
     absolute magnetization    =     0.00 Bohr mag/cell

     iteration #  8     ecut=    40.00 Ry     beta= 0.50
     Davidson diagonalization with overlap
     ethr =  7.58E-06,  avg # of iterations =  2.1

     total cpu time spent up to now is        4.9 secs

     total energy              =    -403.78001443 Ry
     estimated scf accuracy    <       0.00441190 Ry

     total magnetization       =     0.00 Bohr mag/cell
     absolute magnetization    =     0.00 Bohr mag/cell

     iteration #  9     ecut=    40.00 Ry     beta= 0.50
     Davidson diagonalization with overlap
     ethr =  7.58E-06,  avg # of iterations =  2.0
     Minimization algorithm failed to find Fermi energy: reverting to bisection
     Possible cause: smearing is larger than the electronic band-gap.

     total cpu time spent up to now is        5.0 secs

     total energy              =    -403.77746690 Ry
     estimated scf accuracy    <       0.01425998 Ry

     total magnetization       =     0.00 Bohr mag/cell
     absolute magnetization    =     0.00 Bohr mag/cell

     iteration # 10     ecut=    40.00 Ry     beta= 0.50
     Davidson diagonalization with overlap
     ethr =  7.58E-06,  avg # of iterations =  2.0
     Minimization algorithm failed to find Fermi energy: reverting to bisection
     Possible cause: smearing is larger than the electronic band-gap.

     total cpu time spent up to now is        5.0 secs

     total energy              =    -403.77813212 Ry
     estimated scf accuracy    <       0.00225191 Ry

     total magnetization       =     0.00 Bohr mag/cell
     absolute magnetization    =     0.00 Bohr mag/cell

     iteration # 11     ecut=    40.00 Ry     beta= 0.50
     Davidson diagonalization with overlap
     ethr =  7.58E-06,  avg # of iterations =  1.0
     Minimization algorithm failed to find Fermi energy: reverting to bisection
     Possible cause: smearing is larger than the electronic band-gap.

     total cpu time spent up to now is        5.0 secs

     total energy              =    -403.77807526 Ry
     estimated scf accuracy    <       0.00143861 Ry

     total magnetization       =     0.00 Bohr mag/cell
     absolute magnetization    =     0.00 Bohr mag/cell

     iteration # 12     ecut=    40.00 Ry     beta= 0.50
     Davidson diagonalization with overlap
     ethr =  7.57E-06,  avg # of iterations =  1.0

     total cpu time spent up to now is        5.1 secs

     total energy              =    -403.77803738 Ry
     estimated scf accuracy    <       0.00102314 Ry

     total magnetization       =     0.00 Bohr mag/cell
     absolute magnetization    =     0.00 Bohr mag/cell

     iteration # 13     ecut=    40.00 Ry     beta= 0.50
     Davidson diagonalization with overlap
     ethr =  5.38E-06,  avg # of iterations =  1.0

     total cpu time spent up to now is        5.1 secs

     total energy              =    -403.77802245 Ry
     estimated scf accuracy    <       0.00079205 Ry

     total magnetization       =     0.00 Bohr mag/cell
     absolute magnetization    =     0.00 Bohr mag/cell

     iteration # 14     ecut=    40.00 Ry     beta= 0.50
     Davidson diagonalization with overlap
     ethr =  4.17E-06,  avg # of iterations =  1.0

     total cpu time spent up to now is        5.1 secs

     total energy              =    -403.77803971 Ry
     estimated scf accuracy    <       0.00069548 Ry

     total magnetization       =     0.00 Bohr mag/cell
     absolute magnetization    =     0.00 Bohr mag/cell

     iteration # 15     ecut=    40.00 Ry     beta= 0.50
     Davidson diagonalization with overlap
     ethr =  3.66E-06,  avg # of iterations =  1.0

     total cpu time spent up to now is        5.1 secs

     total energy              =    -403.77777814 Ry
     estimated scf accuracy    <       0.00079352 Ry

     total magnetization       =     0.00 Bohr mag/cell
     absolute magnetization    =     0.00 Bohr mag/cell

     iteration # 16     ecut=    40.00 Ry     beta= 0.50
     Davidson diagonalization with overlap
     ethr =  3.66E-06,  avg # of iterations =  2.0

     total cpu time spent up to now is        5.2 secs

     total energy              =    -403.77789564 Ry
     estimated scf accuracy    <       0.00000063 Ry

     total magnetization       =     0.00 Bohr mag/cell
     absolute magnetization    =     0.00 Bohr mag/cell

     iteration # 17     ecut=    40.00 Ry     beta= 0.50
     Davidson diagonalization with overlap
     ethr =  3.33E-09,  avg # of iterations =  3.1

     total cpu time spent up to now is        5.2 secs

     total energy              =    -403.77789705 Ry
     estimated scf accuracy    <       0.00000036 Ry

     total magnetization       =     0.00 Bohr mag/cell
     absolute magnetization    =     0.00 Bohr mag/cell

     iteration # 18     ecut=    40.00 Ry     beta= 0.50
     Davidson diagonalization with overlap
     ethr =  1.88E-09,  avg # of iterations =  2.0

     total cpu time spent up to now is        5.3 secs

     total energy              =    -403.77789648 Ry
     estimated scf accuracy    <       0.00000144 Ry

     total magnetization       =     0.00 Bohr mag/cell
     absolute magnetization    =     0.00 Bohr mag/cell

     iteration # 19     ecut=    40.00 Ry     beta= 0.50
     Davidson diagonalization with overlap
     ethr =  1.88E-09,  avg # of iterations =  2.5

     total cpu time spent up to now is        5.3 secs

     total energy              =    -403.77789720 Ry
     estimated scf accuracy    <       0.00000117 Ry

     total magnetization       =     0.00 Bohr mag/cell
     absolute magnetization    =     0.00 Bohr mag/cell

     iteration # 20     ecut=    40.00 Ry     beta= 0.50
     Davidson diagonalization with overlap
     ethr =  1.88E-09,  avg # of iterations =  2.0

     total cpu time spent up to now is        5.3 secs

     total energy              =    -403.77789625 Ry
     estimated scf accuracy    <       0.00000290 Ry

     total magnetization       =     0.00 Bohr mag/cell
     absolute magnetization    =     0.00 Bohr mag/cell

     iteration # 21     ecut=    40.00 Ry     beta= 0.50
     Davidson diagonalization with overlap
     ethr =  1.88E-09,  avg # of iterations =  2.6

     total cpu time spent up to now is        5.4 secs

     total energy              =    -403.77789683 Ry
     estimated scf accuracy    <       0.00000009 Ry

     total magnetization       =    -0.00 Bohr mag/cell
     absolute magnetization    =     0.00 Bohr mag/cell

     iteration # 22     ecut=    40.00 Ry     beta= 0.50
     Davidson diagonalization with overlap
     ethr =  4.51E-10,  avg # of iterations =  1.0

     total cpu time spent up to now is        5.4 secs

     total energy              =    -403.77789682 Ry
     estimated scf accuracy    <       0.00000004 Ry

     total magnetization       =    -0.00 Bohr mag/cell
     absolute magnetization    =     0.00 Bohr mag/cell

     iteration # 23     ecut=    40.00 Ry     beta= 0.50
     Davidson diagonalization with overlap
     ethr =  2.33E-10,  avg # of iterations =  1.0

     total cpu time spent up to now is        5.4 secs

     total energy              =    -403.77789682 Ry
     estimated scf accuracy    <          3.0E-09 Ry

     total magnetization       =    -0.00 Bohr mag/cell
     absolute magnetization    =     0.00 Bohr mag/cell

     iteration # 24     ecut=    40.00 Ry     beta= 0.50
     Davidson diagonalization with overlap
     ethr =  1.59E-11,  avg # of iterations =  1.8
 
     Magnetic moment per site  (integrated on atomic sphere of radius R)
     atom   1 (R=0.413)  charge= 17.7860  magn= -0.0000

     total cpu time spent up to now is        5.4 secs

     End of self-consistent calculation

 ------ SPIN UP ------------


          k = 0.0876 0.0876 0.0876 (   335 PWs)   bands (ev):

   -96.8569 -54.2104 -54.1980 -54.1980   6.8982  12.5863  12.7861  12.7861
    13.4674  13.4674  34.1406  38.5325  39.2379  39.2379

          k = 0.2627 0.2627-0.0876 (   345 PWs)   bands (ev):

   -96.8499 -54.2579 -54.2170 -54.2048   9.4984  12.3037  12.7340  12.9668
    13.4428  14.1369  26.2863  31.5716  38.7291  39.2509

          k =-0.2627-0.2627 0.4378 (   350 PWs)   bands (ev):

   -96.8457 -54.2886 -54.2195 -54.2142  10.9012  12.4600  12.8412  13.0124
    14.0698  15.7320  19.9300  32.7889  34.5199  36.0350

          k =-0.0876-0.0876 0.2627 (   344 PWs)   bands (ev):

   -96.8528 -54.2358 -54.2075 -54.2060   8.2956  12.2741  12.8971  13.0097
    13.3791  13.6933  30.2596  34.7451  36.0860  38.4737

          k = 0.4378 0.0876 0.0876 (   342 PWs)   bands (ev):

   -96.8469 -54.2647 -54.2237 -54.2210  10.3938  11.8022  12.8603  13.4311
    13.9804  14.2330  27.3307  30.5108  31.2139  34.8465

          k =-0.0876-0.4378 0.6129 (   353 PWs)   bands (ev):

   -96.8428 -54.2729 -54.2504 -54.2285  11.5463  11.8106  12.5838  13.5199
    14.0847  18.8696  21.8479  25.1829  27.3791  38.5231

          k = 0.0876-0.2627 0.4378 (   348 PWs)   bands (ev):

   -96.8457 -54.2732 -54.2329 -54.2160  11.0728  12.1098  12.4188  13.2258
    13.8313  15.4707  23.4478  28.8314  31.7004  39.1085

          k =-0.6129 0.0876 0.0876 (   348 PWs)   bands (ev):

   -96.8428 -54.2830 -54.2379 -54.2305  11.0272  11.4719  13.5707  13.8396
    14.1409  16.8738  24.1804  25.6418  29.2202  34.1117

          k = 0.2627 0.2627 0.2627 (   353 PWs)   bands (ev):

   -96.8482 -54.2801 -54.2087 -54.2087  10.1706  12.7263  12.7263  13.0511
    13.8984  13.8984  22.3527  36.8767  37.3974  37.3974

          k =-0.2627-0.2627 0.7881 (   355 PWs)   bands (ev):

   -96.8440 -54.2756 -54.2459 -54.2182  11.5321  12.0385  12.5378  13.2196
    13.8779  17.6903  20.7384  26.3733  32.9834  35.5527

 ------ SPIN DOWN ----------


          k = 0.0876 0.0876 0.0876 (   335 PWs)   bands (ev):

   -96.8569 -54.2104 -54.1980 -54.1980   6.8982  12.5863  12.7861  12.7861
    13.4674  13.4674  34.1406  38.5325  39.2379  39.2379

          k = 0.2627 0.2627-0.0876 (   345 PWs)   bands (ev):

   -96.8499 -54.2579 -54.2170 -54.2048   9.4984  12.3037  12.7340  12.9668
    13.4428  14.1369  26.2863  31.5716  38.7291  39.2509

          k =-0.2627-0.2627 0.4378 (   350 PWs)   bands (ev):

   -96.8457 -54.2886 -54.2195 -54.2142  10.9012  12.4600  12.8412  13.0124
    14.0698  15.7320  19.9300  32.7889  34.5199  36.0350

          k =-0.0876-0.0876 0.2627 (   344 PWs)   bands (ev):

   -96.8528 -54.2358 -54.2075 -54.2060   8.2956  12.2741  12.8971  13.0097
    13.3791  13.6933  30.2596  34.7451  36.0860  38.4737

          k = 0.4378 0.0876 0.0876 (   342 PWs)   bands (ev):

   -96.8469 -54.2647 -54.2237 -54.2210  10.3938  11.8022  12.8603  13.4311
    13.9804  14.2330  27.3307  30.5108  31.2139  34.8465

          k =-0.0876-0.4378 0.6129 (   353 PWs)   bands (ev):

   -96.8428 -54.2729 -54.2504 -54.2285  11.5463  11.8106  12.5838  13.5199
    14.0847  18.8696  21.8479  25.1829  27.3791  38.5231

          k = 0.0876-0.2627 0.4378 (   348 PWs)   bands (ev):

   -96.8457 -54.2732 -54.2329 -54.2160  11.0728  12.1098  12.4188  13.2258
    13.8313  15.4707  23.4478  28.8314  31.7004  39.1085

          k =-0.6129 0.0876 0.0876 (   348 PWs)   bands (ev):

   -96.8428 -54.2830 -54.2379 -54.2305  11.0272  11.4719  13.5707  13.8396
    14.1409  16.8738  24.1804  25.6418  29.2202  34.1117

          k = 0.2627 0.2627 0.2627 (   353 PWs)   bands (ev):

   -96.8482 -54.2801 -54.2087 -54.2087  10.1706  12.7263  12.7263  13.0511
    13.8984  13.8984  22.3527  36.8767  37.3974  37.3974

          k =-0.2627-0.2627 0.7881 (   355 PWs)   bands (ev):

   -96.8440 -54.2756 -54.2459 -54.2182  11.5321  12.0385  12.5378  13.2196
    13.8779  17.6903  20.7384  26.3733  32.9834  35.5527

     the Fermi energy is    15.5334 ev

!    total energy              =    -403.77789682 Ry
     estimated scf accuracy    <          2.0E-11 Ry
     smearing contrib. (-TS)   =      -0.00014325 Ry
     internal energy E=F+TS    =    -403.77775357 Ry

     The total energy is F=E-TS. E is the sum of the following terms:
     one-electron contribution =    -271.64891635 Ry
     hartree contribution      =     147.03603497 Ry
     xc contribution           =     -38.80946287 Ry
     ewald contribution        =    -240.35540932 Ry

     total magnetization       =    -0.00 Bohr mag/cell
     absolute magnetization    =     0.00 Bohr mag/cell

     convergence has been achieved in  24 iterations

     Forces acting on atoms (cartesian axes, Ry/au):

     atom    1 type  1   force =     0.00000000    0.00000000    0.00000000
     The non-local contrib.  to forces
     atom    1 type  1   force =     0.00000000    0.00000000   -0.00000000
     The ionic contribution  to forces
     atom    1 type  1   force =     0.00000000    0.00000000    0.00000000
     The local contribution  to forces
     atom    1 type  1   force =     0.00000000    0.00000000    0.00000000
     The core correction contribution to forces
     atom    1 type  1   force =    -0.00000000    0.00000000   -0.00000000
     The Hubbard contrib.    to forces
     atom    1 type  1   force =     0.00000000    0.00000000    0.00000000
     The SCF correction term to forces
     atom    1 type  1   force =     0.00000000   -0.00000000   -0.00000000

     Total force =     0.000000     Total SCF correction =     0.000000


     Computing stress (Cartesian axis) and pressure

          total   stress  (Ry/bohr**3)                   (kbar)     P=        4.07
   0.00002768   0.00000000  -0.00000000            4.07        0.00       -0.00
   0.00000000   0.00002768   0.00000000            0.00        4.07        0.00
  -0.00000000   0.00000000   0.00002768           -0.00        0.00        4.07


     Writing all to output data dir ./output/opt.save/
 
     init_run     :      0.14s CPU      0.15s WALL (       2 calls)
     electrons    :      4.00s CPU      4.80s WALL (       7 calls)
     update_pot   :      0.10s CPU      0.10s WALL (       4 calls)
     forces       :      0.09s CPU      0.09s WALL (       7 calls)
     stress       :      0.19s CPU      0.20s WALL (       7 calls)

     Called by init_run:
     wfcinit      :      0.01s CPU      0.01s WALL (       2 calls)
     potinit      :      0.02s CPU      0.02s WALL (       3 calls)
     hinit0       :      0.11s CPU      0.11s WALL (       2 calls)

     Called by electrons:
     c_bands      :      2.74s CPU      3.41s WALL (     143 calls)
     sum_band     :      0.74s CPU      0.79s WALL (     143 calls)
     v_of_rho     :      0.31s CPU      0.32s WALL (     150 calls)
     newd         :      0.11s CPU      0.12s WALL (     150 calls)
     mix_rho      :      0.06s CPU      0.06s WALL (     143 calls)

     Called by c_bands:
     init_us_2    :      0.04s CPU      0.04s WALL (    3020 calls)
     init_us_2:cp :      0.03s CPU      0.03s WALL (    3020 calls)
     cegterg      :      2.42s CPU      2.64s WALL (    1430 calls)

     Called by *egterg:
     cdiaghg      :      0.67s CPU      0.72s WALL (    4167 calls)
     h_psi        :      1.53s CPU      1.68s WALL (    4237 calls)
     s_psi        :      0.02s CPU      0.02s WALL (    4237 calls)
     g_psi        :      0.01s CPU      0.01s WALL (    2787 calls)

     Called by h_psi:
     h_psi:calbec :      0.05s CPU      0.06s WALL (    4237 calls)
     vloc_psi     :      1.44s CPU      1.57s WALL (    4237 calls)
     add_vuspsi   :      0.02s CPU      0.03s WALL (    4237 calls)

     General routines
     calbec       :      0.07s CPU      0.08s WALL (    6017 calls)
     fft          :      0.15s CPU      0.15s WALL (    4018 calls)
     ffts         :      0.01s CPU      0.01s WALL (     586 calls)
     fftw         :      1.49s CPU      1.63s WALL (  116736 calls)
     interpolate  :      0.02s CPU      0.02s WALL (     300 calls)
 
     Parallel routines
 
     PWSCF        :      4.63s CPU      5.53s WALL

 
   This run was terminated on:   9:40:19   4Jun2024            

=------------------------------------------------------------------------------=
   JOB DONE.
=------------------------------------------------------------------------------=
