
     Program PWSCF v.7.2 starts on  5Jun2024 at  0:23:39 

     This program is part of the open-source Quantum ESPRESSO suite
     for quantum simulation of materials; please cite
         "P. Giannozzi et al., J. Phys.:Condens. Matter 21 395502 (2009);
         "P. Giannozzi et al., J. Phys.:Condens. Matter 29 465901 (2017);
         "P. Giannozzi et al., J. Chem. Phys. 152 154105 (2020);
          URL http://www.quantum-espresso.org", 
     in publications or presentations arising from this work. More details at
     http://www.quantum-espresso.org/quote

     Parallel version (MPI), running on    32 processors

     MPI processes distributed on     1 nodes
     180475 MiB available memory on the printing compute node when the environment starts
 
     Reading input from scf_bc3.in
Warning: card &CELL ignored
Warning: card / ignored

     Current dimensions of program PWSCF are:
     Max number of different atomic species (ntypx) = 10
     Max number of k-points (npk) =  40000
     Max angular momentum in pseudopotentials (lmaxx) =  4
 
     R & G space division:  proc/nbgrp/npool/nimage =      32
     Subspace diagonalization in iterative solution of the eigenvalue problem:
     a serial algorithm will be used

 
     Parallelization info
     --------------------
     sticks:   dense  smooth     PW     G-vecs:    dense   smooth      PW
     Min          64      32      8                13804     4878     692
     Max          65      33      9                13839     4905     719
     Sum        2053    1027    283               442007   156319   22723
 
     Using Slab Decomposition
 


     bravais-lattice index     =            0
     lattice parameter (alat)  =       9.6476  a.u.
     unit-cell volume          =    4569.7547 (a.u.)^3
     number of atoms/cell      =           14
     number of atomic types    =            3
     number of electrons       =       238.10
     number of Kohn-Sham states=          143
     kinetic-energy cutoff     =      40.0000  Ry
     charge density cutoff     =     320.0000  Ry
     scf convergence threshold =      1.0E-06
     mixing beta               =       0.1000
     number of iterations used =            8  plain     mixing
     Exchange-correlation= SLA  PW   PBE  PBE
                           (   1   4   3   4   0   0   0)

     Effective Screening Medium Method
     =================================
     Boundary Conditions: Vacuum-Slab-Metal
     total charge in unit cell        =  -0.1000
     grid points for fit at edges     =        4 
 

     celldm(1)=   9.647639  celldm(2)=   0.000000  celldm(3)=   0.000000
     celldm(4)=   0.000000  celldm(5)=   0.000000  celldm(6)=   0.000000

     crystal axes: (cart. coord. in units of alat)
               a(1) = (   1.000000   0.000000   0.000000 )  
               a(2) = (   0.500000   0.866025   0.000000 )  
               a(3) = (   0.000000   0.000000   5.876234 )  

     reciprocal axes: (cart. coord. in units 2 pi/alat)
               b(1) = (  1.000000 -0.577350  0.000000 )  
               b(2) = (  0.000000  1.154701  0.000000 )  
               b(3) = (  0.000000  0.000000  0.170177 )  


     PseudoPot. # 1 for Cu read from file:
     ../../pseudo/cu_pbe_v1.2.uspp.F.UPF
     MD5 check sum: 6e991ff952a84172a2a52a1c1e996048
     Pseudo is Ultrasoft + core correction, Zval = 19.0
     Generated by new atomic code, or converted to UPF format
     Using radial grid of  867 points,  6 beta functions with: 
                l(1) =   0
                l(2) =   0
                l(3) =   1
                l(4) =   1
                l(5) =   2
                l(6) =   2
     Q(r) pseudized with  8 coefficients,  rinner =    1.150   1.150   1.150
                                                       1.150   1.150

     PseudoPot. # 2 for O  read from file:
     ../../pseudo/o_pbe_v1.2.uspp.F.UPF
     MD5 check sum: 734c27235a0248c51dbae37a1fbe46ec
     Pseudo is Ultrasoft + core correction, Zval =  6.0
     Generated by new atomic code, or converted to UPF format
     Using radial grid of  737 points,  5 beta functions with: 
                l(1) =   0
                l(2) =   0
                l(3) =   1
                l(4) =   1
                l(5) =   2
     Q(r) pseudized with  8 coefficients,  rinner =    0.900   0.900   0.900
                                                       0.900   0.900

     PseudoPot. # 3 for C  read from file:
     ../../pseudo/c_pbe_v1.2.uspp.F.UPF
     MD5 check sum: d1aef80898a10debaa0f26306b886e00
     Pseudo is Ultrasoft + core correction, Zval =  4.0
     Generated by new atomic code, or converted to UPF format
     Using radial grid of  721 points,  4 beta functions with: 
                l(1) =   0
                l(2) =   0
                l(3) =   1
                l(4) =   1
     Q(r) pseudized with  8 coefficients,  rinner =    1.100   1.100   1.100


     atomic species   valence    mass     pseudopotential
        Cu            19.00    63.54600     Cu( 1.00)
        O              6.00    15.99900     O ( 1.00)
        C              4.00    12.01100     C ( 1.00)

     No symmetry found



   Cartesian axes

     site n.     atom                  positions (alat units)
         1           Cu  tau(   1) = (   0.1250000   0.0721688  -0.3917489  )
         2           Cu  tau(   2) = (   0.6303651   0.3620439   0.0093767  )
         3           Cu  tau(   3) = (   0.3908697   0.2225165   0.4072039  )
         4           Cu  tau(   4) = (   0.3750000   0.5051815  -0.3917489  )
         5           Cu  tau(   5) = (   0.8810586   0.7929929   0.0121369  )
         6           Cu  tau(   6) = (   0.6406493   0.6600251   0.4293002  )
         7           Cu  tau(   7) = (   0.6250000   0.0721688  -0.3917489  )
         8           Cu  tau(   8) = (   1.1289367   0.3637558   0.0124115  )
         9           Cu  tau(   9) = (   0.8944855   0.2208325   0.4305396  )
        10           Cu  tau(  10) = (   0.8750000   0.5051815  -0.3917489  )
        11           Cu  tau(  11) = (   1.3806944   0.7954917   0.0246836  )
        12           Cu  tau(  12) = (   1.1455917   0.6584810   0.4319321  )
        13           O   tau(  13) = (   0.8819856   0.5082280   0.9272744  )
        14           C   tau(  14) = (   0.8813532   0.5068991   0.6960150  )

     number of k points=     2  Methfessel-Paxton smearing, width (Ry)=  0.0100
                       cart. coord. in units 2pi/alat
        k(    1) = (   0.2500000   0.1443376   0.0000000), wk =   1.0000000
        k(    2) = (   0.2500000  -0.4330127   0.0000000), wk =   1.0000000

     Dense  grid:   442007 G-vectors     FFT dimensions: (  60,  60, 324)

     Smooth grid:   156319 G-vectors     FFT dimensions: (  40,  40, 240)

     Estimated max dynamical RAM per process >      66.24 MB

     Estimated total dynamical RAM >       2.07 GB

     Initial potential from superposition of free atoms

     starting charge     225.9999, renormalised to     238.1000

     negative rho (up, down):  4.015E-03 0.000E+00
     Starting wfcs are  164 randomized atomic wfcs

     total cpu time spent up to now is        1.0 secs

     Self-consistent Calculation

     iteration #  1     ecut=    40.00 Ry     beta= 0.10
     Davidson diagonalization with overlap
     ethr =  1.00E-02,  avg # of iterations =  5.5

     negative rho (up, down):  1.867E-03 0.000E+00

     total cpu time spent up to now is        2.1 secs

     total energy              =   -4835.36178679 Ry
     estimated scf accuracy    <     308.38958883 Ry

     iteration #  2     ecut=    40.00 Ry     beta= 0.10
     Davidson diagonalization with overlap
     ethr =  1.00E-02,  avg # of iterations = 43.0

     negative rho (up, down):  8.427E-04 0.000E+00

     total cpu time spent up to now is        6.7 secs

     total energy              =   -4786.37733709 Ry
     estimated scf accuracy    <    4851.99917983 Ry

     iteration #  3     ecut=    40.00 Ry     beta= 0.10
     Davidson diagonalization with overlap
     ethr =  1.00E-02,  avg # of iterations = 17.0

     negative rho (up, down):  6.910E-04 0.000E+00

     total cpu time spent up to now is        8.6 secs

     total energy              =   -4881.42415780 Ry
     estimated scf accuracy    <     210.71812215 Ry

     iteration #  4     ecut=    40.00 Ry     beta= 0.10
     Davidson diagonalization with overlap
     ethr =  1.00E-02,  avg # of iterations =  4.0

     negative rho (up, down):  4.658E-04 0.000E+00

     total cpu time spent up to now is        9.3 secs

     total energy              =   -4879.22040101 Ry
     estimated scf accuracy    <      65.43029760 Ry

     iteration #  5     ecut=    40.00 Ry     beta= 0.10
     Davidson diagonalization with overlap
     ethr =  1.00E-02,  avg # of iterations = 11.5
     Minimization algorithm failed to find Fermi energy: reverting to bisection
     Possible cause: smearing is larger than the electronic band-gap.

     negative rho (up, down):  4.988E-04 0.000E+00

     total cpu time spent up to now is       10.7 secs

     total energy              =   -4890.40227421 Ry
     estimated scf accuracy    <      27.45090682 Ry

     iteration #  6     ecut=    40.00 Ry     beta= 0.10
     Davidson diagonalization with overlap
     ethr =  1.00E-02,  avg # of iterations =  1.0

     negative rho (up, down):  3.720E-04 0.000E+00

     total cpu time spent up to now is       11.3 secs

     total energy              =   -4888.12786297 Ry
     estimated scf accuracy    <      25.52141482 Ry

     iteration #  7     ecut=    40.00 Ry     beta= 0.10
     Davidson diagonalization with overlap
     ethr =  1.00E-02,  avg # of iterations =  1.0
     Minimization algorithm failed to find Fermi energy: reverting to bisection
     Possible cause: smearing is larger than the electronic band-gap.

     negative rho (up, down):  3.079E-04 0.000E+00

     total cpu time spent up to now is       11.9 secs

     total energy              =   -4888.59880829 Ry
     estimated scf accuracy    <       5.39206262 Ry

     iteration #  8     ecut=    40.00 Ry     beta= 0.10
     Davidson diagonalization with overlap
     ethr =  2.26E-03,  avg # of iterations =  2.0

     negative rho (up, down):  2.050E-04 0.000E+00

     total cpu time spent up to now is       12.6 secs

     total energy              =   -4888.83515700 Ry
     estimated scf accuracy    <       0.89082847 Ry

     iteration #  9     ecut=    40.00 Ry     beta= 0.10
     Davidson diagonalization with overlap
     c_bands:  4 eigenvalues not converged
     c_bands:  3 eigenvalues not converged
     ethr =  3.74E-04,  avg # of iterations = 20.0

     negative rho (up, down):  2.248E-04 0.000E+00

     total cpu time spent up to now is       14.6 secs

     total energy              =   -4889.25162219 Ry
     estimated scf accuracy    <       1.54565392 Ry

     iteration # 10     ecut=    40.00 Ry     beta= 0.10
     Davidson diagonalization with overlap
     c_bands:  2 eigenvalues not converged
     ethr =  3.74E-04,  avg # of iterations = 11.0

     negative rho (up, down):  1.068E-04 0.000E+00

     total cpu time spent up to now is       15.6 secs

     total energy              =   -4889.02884977 Ry
     estimated scf accuracy    <       1.11474587 Ry

     iteration # 11     ecut=    40.00 Ry     beta= 0.10
     Davidson diagonalization with overlap
     ethr =  3.74E-04,  avg # of iterations =  2.0

     negative rho (up, down):  1.242E-04 0.000E+00

     total cpu time spent up to now is       16.3 secs

     total energy              =   -4888.93333816 Ry
     estimated scf accuracy    <       0.11341497 Ry

     iteration # 12     ecut=    40.00 Ry     beta= 0.10
     Davidson diagonalization with overlap
     c_bands:  3 eigenvalues not converged
     c_bands:  3 eigenvalues not converged
     ethr =  4.76E-05,  avg # of iterations = 70.0

     negative rho (up, down):  8.984E-05 0.000E+00

     total cpu time spent up to now is       22.0 secs

     total energy              =   -4888.98503088 Ry
     estimated scf accuracy    <       0.16379066 Ry

     iteration # 13     ecut=    40.00 Ry     beta= 0.10
     Davidson diagonalization with overlap
     c_bands:  1 eigenvalues not converged
     ethr =  4.76E-05,  avg # of iterations = 10.5
     Minimization algorithm failed to find Fermi energy: reverting to bisection
     Possible cause: smearing is larger than the electronic band-gap.

     negative rho (up, down):  2.630E-04 0.000E+00

     total cpu time spent up to now is       23.0 secs

     total energy              =   -4888.95264223 Ry
     estimated scf accuracy    <       0.03809016 Ry

     iteration # 14     ecut=    40.00 Ry     beta= 0.10
     Davidson diagonalization with overlap
     c_bands:  4 eigenvalues not converged
     c_bands:  2 eigenvalues not converged
     ethr =  1.60E-05,  avg # of iterations = 20.0

     negative rho (up, down):  4.782E-04 0.000E+00

     total cpu time spent up to now is       24.7 secs

     total energy              =   -4888.92432857 Ry
     estimated scf accuracy    <       0.01050471 Ry

     iteration # 15     ecut=    40.00 Ry     beta= 0.10
     Davidson diagonalization with overlap
     c_bands:  4 eigenvalues not converged
     c_bands:  2 eigenvalues not converged
     ethr =  4.41E-06,  avg # of iterations = 30.0

     negative rho (up, down):  3.424E-04 0.000E+00

     total cpu time spent up to now is       27.2 secs

     total energy              =   -4888.92736655 Ry
     estimated scf accuracy    <       0.65132266 Ry

     iteration # 16     ecut=    40.00 Ry     beta= 0.10
     Davidson diagonalization with overlap
     ethr =  4.41E-06,  avg # of iterations = 14.0

     negative rho (up, down):  3.046E-04 0.000E+00

     total cpu time spent up to now is       28.3 secs

     total energy              =   -4888.94195365 Ry
     estimated scf accuracy    <       0.00648554 Ry

     iteration # 17     ecut=    40.00 Ry     beta= 0.10
     Davidson diagonalization with overlap
     ethr =  2.72E-06,  avg # of iterations =  1.5
     Minimization algorithm failed to find Fermi energy: reverting to bisection
     Possible cause: smearing is larger than the electronic band-gap.

     negative rho (up, down):  3.040E-04 0.000E+00

     total cpu time spent up to now is       29.0 secs

     total energy              =   -4888.94446700 Ry
     estimated scf accuracy    <       0.00288204 Ry

     iteration # 18     ecut=    40.00 Ry     beta= 0.10
     Davidson diagonalization with overlap
     ethr =  1.21E-06,  avg # of iterations =  2.0

     negative rho (up, down):  4.713E-04 0.000E+00

     total cpu time spent up to now is       29.7 secs

     total energy              =   -4888.93994349 Ry
     estimated scf accuracy    <       0.00458066 Ry

     iteration # 19     ecut=    40.00 Ry     beta= 0.10
     Davidson diagonalization with overlap
     c_bands:  1 eigenvalues not converged
     ethr =  1.21E-06,  avg # of iterations = 11.5

     negative rho (up, down):  5.868E-04 0.000E+00

     total cpu time spent up to now is       30.9 secs

     total energy              =   -4888.94171444 Ry
     estimated scf accuracy    <       0.01189990 Ry

     iteration # 20     ecut=    40.00 Ry     beta= 0.10
     Davidson diagonalization with overlap
     c_bands:  1 eigenvalues not converged
     ethr =  1.21E-06,  avg # of iterations = 18.0

     negative rho (up, down):  7.230E-04 0.000E+00

     total cpu time spent up to now is       32.2 secs

     total energy              =   -4888.94155740 Ry
     estimated scf accuracy    <       0.03605740 Ry

     iteration # 21     ecut=    40.00 Ry     beta= 0.10
     Davidson diagonalization with overlap
     c_bands:  3 eigenvalues not converged
     ethr =  1.21E-06,  avg # of iterations = 16.5

     negative rho (up, down):  6.931E-04 0.000E+00

     total cpu time spent up to now is       33.6 secs

     total energy              =   -4888.94585696 Ry
     estimated scf accuracy    <       0.77779736 Ry

     iteration # 22     ecut=    40.00 Ry     beta= 0.10
     Davidson diagonalization with overlap
     c_bands:  2 eigenvalues not converged
     ethr =  1.21E-06,  avg # of iterations = 10.5

     negative rho (up, down):  5.472E-04 0.000E+00

     total cpu time spent up to now is       34.6 secs

     total energy              =   -4888.94808765 Ry
     estimated scf accuracy    <       0.62086017 Ry

     iteration # 23     ecut=    40.00 Ry     beta= 0.10
     Davidson diagonalization with overlap
     c_bands:  1 eigenvalues not converged
     ethr =  1.21E-06,  avg # of iterations = 11.5

     negative rho (up, down):  5.921E-04 0.000E+00

     total cpu time spent up to now is       35.6 secs

     total energy              =   -4888.96475329 Ry
     estimated scf accuracy    <       0.00765919 Ry

     iteration # 24     ecut=    40.00 Ry     beta= 0.10
     Davidson diagonalization with overlap
     ethr =  1.21E-06,  avg # of iterations =  2.0

     negative rho (up, down):  6.090E-04 0.000E+00

     total cpu time spent up to now is       36.2 secs

     total energy              =   -4888.97134604 Ry
     estimated scf accuracy    <       0.01599060 Ry

     iteration # 25     ecut=    40.00 Ry     beta= 0.10
     Davidson diagonalization with overlap
     ethr =  1.21E-06,  avg # of iterations =  2.0

     negative rho (up, down):  6.698E-04 0.000E+00

     total cpu time spent up to now is       36.9 secs

     total energy              =   -4888.98046392 Ry
     estimated scf accuracy    <       0.00265216 Ry

     iteration # 26     ecut=    40.00 Ry     beta= 0.10
     Davidson diagonalization with overlap
     c_bands:  2 eigenvalues not converged
     ethr =  1.11E-06,  avg # of iterations = 12.5

     negative rho (up, down):  7.620E-04 0.000E+00

     total cpu time spent up to now is       38.2 secs

     total energy              =   -4888.97470475 Ry
     estimated scf accuracy    <       0.00053441 Ry

     iteration # 27     ecut=    40.00 Ry     beta= 0.10
     Davidson diagonalization with overlap
     ethr =  2.24E-07,  avg # of iterations =  4.0

     negative rho (up, down):  8.485E-04 0.000E+00

     total cpu time spent up to now is       38.9 secs

     total energy              =   -4888.98057961 Ry
     estimated scf accuracy    <       0.01402985 Ry

     iteration # 28     ecut=    40.00 Ry     beta= 0.10
     Davidson diagonalization with overlap
     ethr =  2.24E-07,  avg # of iterations =  1.5
     Minimization algorithm failed to find Fermi energy: reverting to bisection
     Possible cause: smearing is larger than the electronic band-gap.

     negative rho (up, down):  8.852E-04 0.000E+00

     total cpu time spent up to now is       39.6 secs

     total energy              =   -4888.98298003 Ry
     estimated scf accuracy    <       0.00336747 Ry

     iteration # 29     ecut=    40.00 Ry     beta= 0.10
     Davidson diagonalization with overlap
     ethr =  2.24E-07,  avg # of iterations =  1.0
     Minimization algorithm failed to find Fermi energy: reverting to bisection
     Possible cause: smearing is larger than the electronic band-gap.

     negative rho (up, down):  9.421E-04 0.000E+00

     total cpu time spent up to now is       40.2 secs

     total energy              =   -4888.98274023 Ry
     estimated scf accuracy    <       0.00008175 Ry

     iteration # 30     ecut=    40.00 Ry     beta= 0.10
     Davidson diagonalization with overlap
     c_bands:  2 eigenvalues not converged
     ethr =  3.43E-08,  avg # of iterations = 15.0

     negative rho (up, down):  9.515E-04 0.000E+00

     total cpu time spent up to now is       42.0 secs

     total energy              =   -4888.98280069 Ry
     estimated scf accuracy    <       0.00012152 Ry

     iteration # 31     ecut=    40.00 Ry     beta= 0.10
     Davidson diagonalization with overlap
     ethr =  3.43E-08,  avg # of iterations =  2.5

     negative rho (up, down):  9.229E-04 0.000E+00

     total cpu time spent up to now is       42.7 secs

     total energy              =   -4888.98008819 Ry
     estimated scf accuracy    <       0.00006649 Ry

     iteration # 32     ecut=    40.00 Ry     beta= 0.10
     Davidson diagonalization with overlap
     ethr =  2.79E-08,  avg # of iterations =  4.5

     negative rho (up, down):  9.446E-04 0.000E+00

     total cpu time spent up to now is       43.4 secs

     total energy              =   -4888.98045950 Ry
     estimated scf accuracy    <       0.00124016 Ry

     iteration # 33     ecut=    40.00 Ry     beta= 0.10
     Davidson diagonalization with overlap
     ethr =  2.79E-08,  avg # of iterations =  1.0

     negative rho (up, down):  1.001E-03 0.000E+00

     total cpu time spent up to now is       44.0 secs

     total energy              =   -4888.98169005 Ry
     estimated scf accuracy    <       0.00106464 Ry

     iteration # 34     ecut=    40.00 Ry     beta= 0.10
     Davidson diagonalization with overlap
     ethr =  2.79E-08,  avg # of iterations =  3.5

     negative rho (up, down):  9.561E-04 0.000E+00

     total cpu time spent up to now is       44.7 secs

     total energy              =   -4888.98031947 Ry
     estimated scf accuracy    <       0.00000842 Ry

     iteration # 35     ecut=    40.00 Ry     beta= 0.10
     Davidson diagonalization with overlap
     ethr =  3.54E-09,  avg # of iterations =  9.5

     negative rho (up, down):  9.502E-04 0.000E+00

     total cpu time spent up to now is       46.2 secs

     total energy              =   -4888.97956362 Ry
     estimated scf accuracy    <       0.00011580 Ry

     iteration # 36     ecut=    40.00 Ry     beta= 0.10
     Davidson diagonalization with overlap
     ethr =  3.54E-09,  avg # of iterations =  5.0
     Minimization algorithm failed to find Fermi energy: reverting to bisection
     Possible cause: smearing is larger than the electronic band-gap.

     negative rho (up, down):  9.524E-04 0.000E+00

     total cpu time spent up to now is       46.9 secs

     total energy              =   -4888.97781018 Ry
     estimated scf accuracy    <       0.00008332 Ry

     iteration # 37     ecut=    40.00 Ry     beta= 0.10
     Davidson diagonalization with overlap
     ethr =  3.54E-09,  avg # of iterations =  6.5
     Minimization algorithm failed to find Fermi energy: reverting to bisection
     Possible cause: smearing is larger than the electronic band-gap.

     negative rho (up, down):  9.720E-04 0.000E+00

     total cpu time spent up to now is       47.7 secs

     total energy              =   -4888.97639983 Ry
     estimated scf accuracy    <       0.00001275 Ry

     iteration # 38     ecut=    40.00 Ry     beta= 0.10
     Davidson diagonalization with overlap
     ethr =  3.54E-09,  avg # of iterations =  5.5

     negative rho (up, down):  1.014E-03 0.000E+00

     total cpu time spent up to now is       48.5 secs

     total energy              =   -4888.97561236 Ry
     estimated scf accuracy    <       0.00000436 Ry

     iteration # 39     ecut=    40.00 Ry     beta= 0.10
     Davidson diagonalization with overlap
     ethr =  1.83E-09,  avg # of iterations =  6.5

     negative rho (up, down):  1.085E-03 0.000E+00

     total cpu time spent up to now is       49.4 secs

     End of self-consistent calculation

          k = 0.2500 0.1443 0.0000 ( 19495 PWs)   bands (ev):

  -111.4666-111.4605-111.4154-111.2632-111.1861-111.0615-111.0564-110.9913
  -110.9522-110.9108-110.9061-110.8319 -69.0133 -68.9852 -68.9312 -68.8214
   -68.8137 -68.7603 -68.7451 -68.7322 -68.7202 -68.6949 -68.6682 -68.6128
   -68.5948 -68.5759 -68.5634 -68.4821 -68.4764 -68.4746 -68.4469 -68.4405
   -68.4346 -68.4250 -68.3964 -68.3856 -68.3669 -68.3547 -68.3448 -68.3279
   -68.2970 -68.2918 -68.2862 -68.2648 -68.2582 -68.2539 -68.2106 -68.2056
   -22.0974  -9.2198  -6.8794  -6.1103  -5.6251  -5.5635  -4.4892  -3.9082
    -3.4335  -3.3130  -3.3053  -3.2003  -3.0916  -3.0496  -2.8094  -2.7426
    -2.7238  -2.6157  -2.6035  -2.5522  -2.1993  -2.1834  -2.1051  -2.0147
    -1.8985  -1.8113  -1.7798  -1.7421  -1.7355  -1.7045  -1.6554  -1.5667
    -1.5326  -1.4803  -1.4380  -1.4226  -1.3952  -1.3676  -1.3425  -1.2216
    -1.1694  -1.1472  -1.0763  -1.0395  -0.9818  -0.9285  -0.8750  -0.8266
    -0.8202  -0.8064  -0.6976  -0.6561  -0.6470  -0.5616  -0.4849  -0.4597
    -0.4405  -0.4250  -0.3787  -0.3409  -0.3267  -0.2898  -0.2555  -0.2286
    -0.2134  -0.1558  -0.1282  -0.1131   0.3574   0.9988   1.1702   1.5568
     1.5811   1.9148   2.1116   2.5861   3.2786   3.7709   3.9246   4.1172
     4.7569   5.3559   5.4184   5.4285   6.0504   6.3655   6.3839   6.5111
     7.0494   7.1643   7.3527   7.4452   7.6470   7.7063   7.7853

          k = 0.2500-0.4330 0.0000 ( 19534 PWs)   bands (ev):

  -111.4654-111.4617-111.4154-111.2631-111.1862-111.0599-111.0581-110.9912
  -110.9524-110.9091-110.9079-110.8319 -69.0015 -68.9960 -68.9307 -68.8190
   -68.8155 -68.7485 -68.7456 -68.7362 -68.7280 -68.6948 -68.6583 -68.6122
   -68.5949 -68.5864 -68.5630 -68.4758 -68.4740 -68.4559 -68.4505 -68.4420
   -68.4380 -68.4267 -68.4049 -68.3901 -68.3545 -68.3543 -68.3487 -68.3376
   -68.3012 -68.2932 -68.2851 -68.2648 -68.2566 -68.2555 -68.2121 -68.2055
   -22.0968  -9.1275  -6.3261  -5.8532  -5.6069  -5.5362  -4.3448  -4.3156
    -3.8871  -3.2297  -3.1494  -2.9194  -2.8065  -2.7121  -2.6216  -2.6060
    -2.5185  -2.4197  -2.3578  -2.3277  -2.2109  -2.1708  -2.1521  -2.0772
    -2.0677  -2.0197  -1.9471  -1.8856  -1.8477  -1.8204  -1.6971  -1.6666
    -1.6519  -1.6048  -1.5886  -1.5299  -1.4968  -1.4580  -1.4196  -1.3828
    -1.3162  -1.2564  -1.2399  -1.2340  -1.1168  -1.0919  -1.0433  -1.0034
    -0.9817  -0.9016  -0.8914  -0.8252  -0.7744  -0.6932  -0.6794  -0.6228
    -0.5750  -0.5567  -0.5014  -0.4378  -0.3640  -0.3363  -0.3209  -0.2944
    -0.2750  -0.2415  -0.1519  -0.0869   0.0565   0.2830   0.7322   1.7016
     2.1323   2.5430   2.7478   3.5728   3.7628   4.2278   4.3875   4.4660
     4.4673   4.8473   4.8936   5.4904   6.2644   6.4709   6.7614   6.8116
     6.8281   6.9479   7.3159   7.6002   7.8560   8.0579   8.1063

     the Fermi energy is     1.4793 ev

!    total energy              =   -4888.97510031 Ry
     estimated scf accuracy    <       0.00000029 Ry
     smearing contrib. (-TS)   =       0.00023894 Ry
     internal energy E=F+TS    =   -4888.97533925 Ry

     The total energy is F=E-TS. E is the sum of the following terms:
     one-electron contribution = -459286.92667717 Ry
     hartree contribution      =  229661.95640297 Ry
     xc contribution           =    -476.20343617 Ry
     ewald contribution        =  225212.19837111 Ry

     convergence has been achieved in  39 iterations

     negative rho (up, down):  1.085E-03 0.000E+00

     Forces acting on atoms (cartesian axes, Ry/au):

     atom    1 type  1   force =    -0.00113822   -0.00093935   -0.00088399
     atom    2 type  1   force =     0.00039395    0.00037434   -0.00120575
     atom    3 type  1   force =     0.00012034    0.00044043    0.00006465
     atom    4 type  1   force =    -0.00086054    0.00045348    0.00079362
     atom    5 type  1   force =     0.00022520    0.00020312   -0.00184040
     atom    6 type  1   force =     0.00091745   -0.00012483    0.00061231
     atom    7 type  1   force =     0.00020288   -0.00118337    0.00064296
     atom    8 type  1   force =     0.00005232    0.00042571   -0.00172524
     atom    9 type  1   force =     0.00030295    0.00085529   -0.00000696
     atom   10 type  1   force =    -0.00006271   -0.00036593    0.00074442
     atom   11 type  1   force =     0.00009201    0.00009812   -0.00133133
     atom   12 type  1   force =    -0.00205913   -0.00110312   -0.00080582
     atom   13 type  2   force =     0.00073691    0.00035250    0.01874493
     atom   14 type  3   force =     0.00107659    0.00051361   -0.01973869
     The non-local contrib.  to forces
     atom    1 type  1   force =    -0.01954431   -0.01199414   -0.27934683
     atom    2 type  1   force =    -0.01357238   -0.00795550    0.01657808
     atom    3 type  1   force =     0.09348725    0.05362924    0.29253578
     atom    4 type  1   force =    -0.00695366    0.02574481   -0.27426644
     atom    5 type  1   force =    -0.05421580    0.04768527   -0.02359892
     atom    6 type  1   force =     0.13620768   -0.17484363    0.20963429
     atom    7 type  1   force =     0.01769170   -0.01907702   -0.27458735
     atom    8 type  1   force =     0.01378489   -0.07031453   -0.02268901
     atom    9 type  1   force =    -0.08317815    0.20431058    0.21007632
     atom   10 type  1   force =    -0.00913485   -0.00447294   -0.30222816
     atom   11 type  1   force =     0.03439047    0.01972017   -0.05641162
     atom   12 type  1   force =    -0.17439613   -0.10100920    0.22993003
     atom   13 type  2   force =    -0.00495812   -0.01251530   -2.21731226
     atom   14 type  3   force =     0.02199085    0.01553702    0.49715589
     The ionic contribution  to forces
     atom    1 type  1   force =    -0.64323978   -0.38395821  227.41255924
     atom    2 type  1   force =     0.71663353    0.41853411  670.70745192
     atom    3 type  1   force =     1.03071496    0.66023688 1112.74141911
     atom    4 type  1   force =    -0.07104273    0.95118992  227.10345061
     atom    5 type  1   force =    -0.06844534   -0.37995306  672.81417771
     atom    6 type  1   force =    -4.06914940    1.03349791 1126.89545320
     atom    7 type  1   force =     0.80686406   -0.56524434  227.05007153
     atom    8 type  1   force =    -0.39310111    0.13456917  673.14898816
     atom    9 type  1   force =    -1.11269641   -4.08249739 1128.03262702
     atom   10 type  1   force =     0.18511374    0.06941140  226.17129191
     atom   11 type  1   force =     0.09091135    0.08219159  684.42514423
     atom   12 type  1   force =     3.53771597    2.01821860 1130.38212516
     atom   13 type  2   force =    -0.01703660    0.04167376  446.69087958
     atom   14 type  3   force =     0.00675776    0.00212965  277.04062571
     The local contribution  to forces
     atom    1 type  1   force =     0.66154741    0.39499692 -227.13422143
     atom    2 type  1   force =    -0.70259810   -0.41012246 -670.72535843
     atom    3 type  1   force =    -1.12413681   -0.71344746-1113.03431869
     atom    4 type  1   force =     0.07721618   -0.97640279 -226.82936194
     atom    5 type  1   force =     0.12300832    0.33212046 -672.79268153
     atom    6 type  1   force =     3.93347501   -0.85852195-1127.10483917
     atom    7 type  1   force =    -0.82428525    0.58303715 -226.77593486
     atom    8 type  1   force =     0.37919390   -0.06353667 -673.12829558
     atom    9 type  1   force =     1.19611237    3.87862144-1128.24292355
     atom   10 type  1   force =    -0.17596215   -0.06537334 -225.86906354
     atom   11 type  1   force =    -0.12526862   -0.10193420 -684.37066946
     atom   12 type  1   force =    -3.36508382   -1.91809016-1130.61295334
     atom   13 type  2   force =     0.02268963   -0.02885686 -444.46173725
     atom   14 type  3   force =    -0.02749815   -0.01703888 -277.56119796
     The core correction contribution to forces
     atom    1 type  1   force =     0.00000983    0.00000494    0.00024856
     atom    2 type  1   force =    -0.00003753   -0.00002287   -0.00006232
     atom    3 type  1   force =    -0.00005453   -0.00003067   -0.00029202
     atom    4 type  1   force =    -0.00001583   -0.00003256    0.00034772
     atom    5 type  1   force =     0.00004451   -0.00003498    0.00000780
     atom    6 type  1   force =     0.00009714    0.00008094   -0.00036941
     atom    7 type  1   force =    -0.00003418    0.00000334    0.00034665
     atom    8 type  1   force =    -0.00000923    0.00005746    0.00000668
     atom    9 type  1   force =     0.00011752    0.00004577   -0.00037184
     atom   10 type  1   force =    -0.00002197   -0.00001631    0.00043656
     atom   11 type  1   force =    -0.00004265   -0.00002589    0.00006873
     atom   12 type  1   force =     0.00002118    0.00001284   -0.00042127
     atom   13 type  2   force =     0.00001146    0.00003515    0.00600721
     atom   14 type  3   force =    -0.00024884   -0.00013616    0.00357035
     The Hubbard contrib.    to forces
     atom    1 type  1   force =     0.00000000    0.00000000    0.00000000
     atom    2 type  1   force =     0.00000000    0.00000000    0.00000000
     atom    3 type  1   force =     0.00000000    0.00000000    0.00000000
     atom    4 type  1   force =     0.00000000    0.00000000    0.00000000
     atom    5 type  1   force =     0.00000000    0.00000000    0.00000000
     atom    6 type  1   force =     0.00000000    0.00000000    0.00000000
     atom    7 type  1   force =     0.00000000    0.00000000    0.00000000
     atom    8 type  1   force =     0.00000000    0.00000000    0.00000000
     atom    9 type  1   force =     0.00000000    0.00000000    0.00000000
     atom   10 type  1   force =     0.00000000    0.00000000    0.00000000
     atom   11 type  1   force =     0.00000000    0.00000000    0.00000000
     atom   12 type  1   force =     0.00000000    0.00000000    0.00000000
     atom   13 type  2   force =     0.00000000    0.00000000    0.00000000
     atom   14 type  3   force =     0.00000000    0.00000000    0.00000000
     The SCF correction term to forces
     atom    1 type  1   force =     0.00000000    0.00000000    0.00000000
     atom    2 type  1   force =    -0.00004351   -0.00004146    0.00018500
     atom    3 type  1   force =     0.00009753    0.00006992    0.00072046
     atom    4 type  1   force =     0.00000000    0.00000000    0.00000000
     atom    5 type  1   force =    -0.00017842    0.00040291    0.00025454
     atom    6 type  1   force =     0.00027508   -0.00032062    0.00073340
     atom    7 type  1   force =     0.00000000    0.00000000    0.00000000
     atom    8 type  1   force =     0.00017192   -0.00033224    0.00026452
     atom    9 type  1   force =    -0.00006432    0.00039237    0.00058509
     atom   10 type  1   force =     0.00000000    0.00000000    0.00000000
     atom   11 type  1   force =     0.00008951    0.00016394    0.00053679
     atom   12 type  1   force =    -0.00032828   -0.00021772    0.00051360
     atom   13 type  2   force =     0.00001860    0.00003323    0.00090765
     atom   14 type  3   force =     0.00006302    0.00003946    0.00010732

     Total force =     0.027598     Total SCF correction =     0.001960

     Writing all to output data dir ./output/opt.save/
 
     init_run     :      0.73s CPU      0.81s WALL (       1 calls)
     electrons    :     45.94s CPU     48.39s WALL (       1 calls)
     forces       :      0.42s CPU      0.44s WALL (       1 calls)

     Called by init_run:
     wfcinit      :      0.16s CPU      0.18s WALL (       1 calls)
     potinit      :      0.20s CPU      0.20s WALL (       1 calls)
     hinit0       :      0.24s CPU      0.25s WALL (       1 calls)

     Called by electrons:
     c_bands      :     38.46s CPU     38.78s WALL (      39 calls)
     sum_band     :      4.47s CPU      5.65s WALL (      39 calls)
     v_of_rho     :      0.64s CPU      0.66s WALL (      40 calls)
     newd         :      2.22s CPU      3.15s WALL (      40 calls)
     mix_rho      :      0.12s CPU      0.12s WALL (      39 calls)

     Called by c_bands:
     init_us_2    :      0.14s CPU      0.14s WALL (     160 calls)
     init_us_2:cp :      0.14s CPU      0.14s WALL (     160 calls)
     cegterg      :     36.61s CPU     36.88s WALL (      88 calls)

     Called by *egterg:
     cdiaghg      :     18.18s CPU     18.24s WALL (     921 calls)
     h_psi        :     11.37s CPU     11.57s WALL (     923 calls)
     s_psi        :      1.00s CPU      1.02s WALL (     923 calls)
     g_psi        :      0.05s CPU      0.05s WALL (     833 calls)

     Called by h_psi:
     h_psi:calbec :      1.26s CPU      1.28s WALL (     923 calls)
     vloc_psi     :      8.93s CPU      9.08s WALL (     923 calls)
     add_vuspsi   :      1.09s CPU      1.11s WALL (     923 calls)

     General routines
     calbec       :      1.59s CPU      1.62s WALL (    1009 calls)
     fft          :      0.33s CPU      0.33s WALL (     529 calls)
     ffts         :      0.02s CPU      0.02s WALL (      79 calls)
     fftw         :      8.60s CPU      8.74s WALL (   82028 calls)
     interpolate  :      0.03s CPU      0.04s WALL (      40 calls)
 
     Parallel routines
 
     PWSCF        :     47.34s CPU     50.09s WALL

 
   This run was terminated on:   0:24:29   5Jun2024            

=------------------------------------------------------------------------------=
   JOB DONE.
=------------------------------------------------------------------------------=
