
     Program PWSCF v.7.3.1 starts on 29May2024 at 20:25:52 

     This program is part of the open-source Quantum ESPRESSO suite
     for quantum simulation of materials; please cite
         "P. Giannozzi et al., J. Phys.:Condens. Matter 21 395502 (2009);
         "P. Giannozzi et al., J. Phys.:Condens. Matter 29 465901 (2017);
         "P. Giannozzi et al., J. Chem. Phys. 152 154105 (2020);
          URL http://www.quantum-espresso.org", 
     in publications or presentations arising from this work. More details at
     http://www.quantum-espresso.org/quote

     Parallel version (MPI), running on    64 processors

     MPI processes distributed on     1 nodes
     218875 MiB available memory on the printing compute node when the environment starts
 
     Reading input from espresso.pwi

     Current dimensions of program PWSCF are:
     Max number of different atomic species (ntypx) = 10
     Max number of k-points (npk) =  40000
     Max angular momentum in pseudopotentials (lmaxx) =  4
     Message from routine iosys_1drism:
     default density from MOL file(H2O.tip5p.Nishihara.MOL) is used

     gamma-point specific algorithms are used
 
     R & G space division:  proc/nbgrp/npool/nimage =      64
     Subspace diagonalization in iterative solution of the eigenvalue problem:
     a serial algorithm will be used


     Molecule # 1 for H2O read from file:
     ../../pseudo/H2O.tip5p.Nishihara.MOL
     Density:
         0.26741624E+03 cell^-1
         0.49533751E-02 bohr^-3
         0.55506881E+02 mol/L
         0.99997200E+00 g/cm^3
     Permittivity:
        78.500000
     Number of atoms:   5
     Atoms:
       #  atom      X (angs)      Y (angs)      Z (angs)      Q (e)         E (kcal/mol)  S (angs)
       1  O/h2o     0.00000000   -0.06556000    0.00000000    0.00000000    0.16000000    3.12000000
       2  H/h2o     0.75695000    0.52032000    0.00000000    0.24100000    0.04600000    1.00000000
       3  H/h2o    -0.75695000    0.52032000    0.00000000    0.24100000    0.04600000    1.00000000
       4  L/h2o     0.00000000   -0.46971000    0.57154000   -0.24100000    0.04600000    1.80000000
       5  L/h2o     0.00000000   -0.46971000   -0.57154000   -0.24100000    0.04600000    1.80000000


     Molecule # 2 for K+ read from file:
     ../../pseudo/K+.Hagiwara.MOL
     Density:
         0.48177133E+01 cell^-1
         0.89238937E-04 bohr^-3
         0.10000000E+01 mol/L
         0.39098300E-01 g/cm^3
     Number of atoms:   1
     Atoms:
       #  atom      X (angs)      Y (angs)      Z (angs)      Q (e)         E (kcal/mol)  S (angs)
       1  K         0.00000000    0.00000000    0.00000000    1.00000000    0.00032800    4.93462800


     Molecule # 3 for OH- read from file:
     ../../pseudo/OH-.oplsaa.MOL
     Density:
         0.48177133E+01 cell^-1
         0.89238937E-04 bohr^-3
         0.10000000E+01 mol/L
         0.17007340E-01 g/cm^3
     Number of atoms:   2
     Atoms:
       #  atom      X (angs)      Y (angs)      Z (angs)      Q (e)         E (kcal/mol)  S (angs)
       1  O/oh      0.00000000    0.00000000    0.00000000   -1.30000000    0.25000000    3.20000000
       2  H/oh      0.95300000    0.00000000    0.00000000    0.30000000    0.04600000    1.00000000


     1D-RISM info
     ------------
     closure equation        =           KH
     temperature             =     300.0000  kelvin
     coulomb smearing radius =       2.0000  bohr
     number of solvent sites =            8
     number of grids         =         5973
     maximum of R-space      =     999.8326  bohr
     maximum of G-space      =      18.7632  bohr^-1
     number of iterations    =        15000
     convergence threshold   =      1.0E-08
     Gaussian width of bonds =       0.3162  bohr
     size of MDIIS           =           20
     step of MDIIS           =       0.2000
     number of processes     =           64


     1D-RISM Calculation

     iter. #     1  RMS(g-h-1)= 7.798E-04  nbox=  0  T= 2400.00K
     iter. #   101  RMS(g-h-1)= 1.222E-06  nbox= 20  T= 1600.00K
     iter. #   201  RMS(g-h-1)= 3.438E-06  nbox= 20  T=  711.11K
     iter. #   301  RMS(g-h-1)= 2.056E-06  nbox= 20  T=  474.07K
     iter. #   401  RMS(g-h-1)= 1.763E-06  nbox= 20  T=  316.05K
     iter. #   501  RMS(g-h-1)= 4.727E-07  nbox= 20  T=  300.00K
     iter. #   601  RMS(g-h-1)= 1.645E-07  nbox= 20  T=  300.00K
     iter. #   701  RMS(g-h-1)= 1.081E-07  nbox= 20  T=  300.00K
     iter. #   801  RMS(g-h-1)= 8.835E-08  nbox= 20  T=  300.00K
     iter. #   901  RMS(g-h-1)= 6.970E-08  nbox= 20  T=  300.00K
     iter. #  1001  RMS(g-h-1)= 6.055E-08  nbox= 20  T=  300.00K
     iter. #  1101  RMS(g-h-1)= 5.293E-08  nbox= 20  T=  300.00K
     iter. #  1201  RMS(g-h-1)= 4.761E-08  nbox= 20  T=  300.00K
     iter. #  1301  RMS(g-h-1)= 4.352E-08  nbox= 20  T=  300.00K
     iter. #  1401  RMS(g-h-1)= 3.851E-08  nbox= 20  T=  300.00K
     iter. #  1501  RMS(g-h-1)= 3.419E-08  nbox= 20  T=  300.00K
     iter. #  1601  RMS(g-h-1)= 3.267E-08  nbox= 20  T=  300.00K
     iter. #  1701  RMS(g-h-1)= 3.106E-08  nbox= 20  T=  300.00K
     iter. #  1801  RMS(g-h-1)= 3.048E-08  nbox= 20  T=  300.00K
     iter. #  1901  RMS(g-h-1)= 3.489E-08  nbox= 20  T=  300.00K
     iter. #  2001  RMS(g-h-1)= 2.958E-08  nbox= 20  T=  300.00K
     iter. #  2101  RMS(g-h-1)= 2.944E-08  nbox= 20  T=  300.00K
     iter. #  2201  RMS(g-h-1)= 2.907E-08  nbox= 20  T=  300.00K
     iter. #  2301  RMS(g-h-1)= 2.885E-08  nbox= 20  T=  300.00K
     iter. #  2401  RMS(g-h-1)= 2.669E-08  nbox= 20  T=  300.00K
     iter. #  2501  RMS(g-h-1)= 2.543E-08  nbox= 20  T=  300.00K
     iter. #  2601  RMS(g-h-1)= 2.527E-08  nbox= 20  T=  300.00K
     iter. #  2701  RMS(g-h-1)= 2.375E-08  nbox= 20  T=  300.00K
     iter. #  2801  RMS(g-h-1)= 2.284E-08  nbox= 20  T=  300.00K
     iter. #  2901  RMS(g-h-1)= 2.201E-08  nbox= 20  T=  300.00K
     iter. #  3001  RMS(g-h-1)= 2.062E-08  nbox= 20  T=  300.00K
     iter. #  3101  RMS(g-h-1)= 1.942E-08  nbox= 20  T=  300.00K
     iter. #  3201  RMS(g-h-1)= 1.805E-08  nbox= 20  T=  300.00K
     iter. #  3301  RMS(g-h-1)= 1.705E-08  nbox= 20  T=  300.00K
     iter. #  3401  RMS(g-h-1)= 1.618E-08  nbox= 20  T=  300.00K
     iter. #  3501  RMS(g-h-1)= 1.528E-08  nbox= 20  T=  300.00K
     iter. #  3601  RMS(g-h-1)= 1.447E-08  nbox= 20  T=  300.00K
     iter. #  3701  RMS(g-h-1)= 1.382E-08  nbox= 20  T=  300.00K
     iter. #  3801  RMS(g-h-1)= 1.322E-08  nbox= 20  T=  300.00K
     iter. #  3901  RMS(g-h-1)= 1.258E-08  nbox= 20  T=  300.00K
     iter. #  4001  RMS(g-h-1)= 1.198E-08  nbox= 20  T=  300.00K
     iter. #  4101  RMS(g-h-1)= 1.140E-08  nbox= 20  T=  300.00K
     iter. #  4201  RMS(g-h-1)= 1.082E-08  nbox= 20  T=  300.00K
     iter. #  4301  RMS(g-h-1)= 1.035E-08  nbox= 20  T=  300.00K
     iter. #  4370  RMS(g-h-1)= 1.000E-08  nbox= 20  T=  300.00K

     End of 1D-RISM calculation


     convergence has been achieved in  4370 iterations


     Chemical potential of solvation

     H2O        H2O        Closure      0.144050E+01 kcal/mol
                           GaussFluct  -0.702204E+01 kcal/mol

                K+         Closure     -0.280552E+00 kcal/mol
                           GaussFluct  -0.350091E+00 kcal/mol

                OH-        Closure     -0.749912E+00 kcal/mol
                           GaussFluct  -0.841451E+00 kcal/mol

                Total      Closure      0.410036E+00 kcal/mol
                           GaussFluct  -0.821359E+01 kcal/mol

     K+         H2O        Closure     -0.155726E+02 kcal/mol
                           GaussFluct  -0.194325E+02 kcal/mol

                K+         Closure      0.351545E+06 kcal/mol
                           GaussFluct   0.351545E+06 kcal/mol

                OH-        Closure     -0.351595E+06 kcal/mol
                           GaussFluct  -0.351595E+06 kcal/mol

                Total      Closure     -0.662658E+02 kcal/mol
                           GaussFluct  -0.701837E+02 kcal/mol

     OH-        H2O        Closure     -0.416252E+02 kcal/mol
                           GaussFluct  -0.467063E+02 kcal/mol

                K+         Closure     -0.351595E+06 kcal/mol
                           GaussFluct  -0.351595E+06 kcal/mol

                OH-        Closure      0.351544E+06 kcal/mol
                           GaussFluct   0.351544E+06 kcal/mol

                Total      Closure     -0.925524E+02 kcal/mol
                           GaussFluct  -0.977560E+02 kcal/mol

 
     Parallelization info
     --------------------
     sticks:   dense  smooth     PW     G-vecs:    dense   smooth      PW
     Min         567     284     69                81548    28832    3594
     Max         570     286     72                81558    28844    3612
     Sum       36381   18197   4537              5219483  1845573  230389
 
     Using Slab Decomposition
 


     bravais-lattice index     =            0
     lattice parameter (alat)  =      37.7945  a.u.
     unit-cell volume          =   53986.6731 (a.u.)^3
     number of atoms/cell      =            3
     number of atomic types    =            2
     number of electrons       =         8.00
     number of Kohn-Sham states=            8
     kinetic-energy cutoff     =      40.0000  Ry
     charge density cutoff     =     320.0000  Ry
     scf convergence threshold =      1.0E-08
     mixing beta               =       0.1000
     number of iterations used =            8  plain     mixing
     Exchange-correlation=  SLA  PW   PBX  PBC
                           (   1   4   3   4   0   0   0)

     Effective Screening Medium Method
     =================================
     Boundary Conditions: Vacuum-Slab-Vacuum
     total charge in unit cell        =   0.0000
     grid points for fit at edges     =        4 
 

     celldm(1)=  37.794522  celldm(2)=   0.000000  celldm(3)=   0.000000
     celldm(4)=   0.000000  celldm(5)=   0.000000  celldm(6)=   0.000000

     crystal axes: (cart. coord. in units of alat)
               a(1) = (   1.000000   0.000000   0.000000 )  
               a(2) = (   0.000000   1.000000   0.000000 )  
               a(3) = (   0.000000   0.000000   1.000000 )  

     reciprocal axes: (cart. coord. in units 2 pi/alat)
               b(1) = (  1.000000  0.000000  0.000000 )  
               b(2) = (  0.000000  1.000000  0.000000 )  
               b(3) = (  0.000000  0.000000  1.000000 )  


     PseudoPot. # 1 for O  read from file:
     ../../pseudo/o_pbe_v1.2.uspp.F.UPF
     MD5 check sum: 734c27235a0248c51dbae37a1fbe46ec
     Pseudo is Ultrasoft + core correction, Zval =  6.0
     Generated by new atomic code, or converted to UPF format
     Using radial grid of  737 points,  5 beta functions with: 
                l(1) =   0
                l(2) =   0
                l(3) =   1
                l(4) =   1
                l(5) =   2
     Q(r) pseudized with  8 coefficients,  rinner =    0.900   0.900   0.900
                                                       0.900   0.900

     PseudoPot. # 2 for H  read from file:
     ../../pseudo/h_pbe_v1.4.uspp.F.UPF
     MD5 check sum: 761ae9a214b05c3daf00ab9f6b793d6f
     Pseudo is Ultrasoft, Zval =  1.0
     Generated by new atomic code, or converted to UPF format
     Using radial grid of  615 points,  2 beta functions with: 
                l(1) =   0
                l(2) =   0
     Q(r) pseudized with  8 coefficients,  rinner =    0.700

     atomic species   valence    mass     pseudopotential
     O                 6.00    15.99900     O ( 1.00)
     H                 1.00     1.00800     H ( 1.00)

     No symmetry found



   Cartesian axes

     site n.     atom                  positions (alat units)
         1        O      tau(   1) = (   0.0055737   0.0055733  -0.0000003  )
         2        H      tau(   2) = (   0.0272132   0.0272133   0.0386372  )
         3        H      tau(   3) = (   0.0272132   0.0272134  -0.0381371  )

     number of k points=     1  Gaussian smearing, width (Ry)=  0.0100
                       cart. coord. in units 2pi/alat
        k(    1) = (   0.0000000   0.0000000   0.0000000), wk =   2.0000000

     Dense  grid:  2609742 G-vectors     FFT dimensions: ( 216, 216, 216)

     Smooth grid:   922787 G-vectors     FFT dimensions: ( 160, 160, 160)

     Estimated max dynamical RAM per process >     102.31 MB

     Estimated total dynamical RAM >       6.39 GB

     Solute:
       # atom     E (kcal/mol)  S (angs)
       1  O       0.15540000    3.16600000    given
       2  H       0.04600000    1.00000000    given
       3  H       0.04600000    1.00000000    given


     Laue-RISM info
     --------------
     closure equation        =           KH
     temperature             =     300.0000  kelvin
     coulomb smearing radius =       2.0000  bohr
     number of solvent sites =            6
     solvent sites           =    O/h2o   H/h2o   L/h2o       K
     solvent sites           =     O/oh    H/oh
     number of iterations    =        15000
     convergence threshold   =      1.0E-06
     convergence level       =       0.8000
     size of MDIIS           =           20
     step of MDIIS           =       0.1000
     solvent cutoff          =     160.0000  Ry
     Custom grid:   922787 G-vectors     FFT dimensions: ( 160, 160, 160)

     Boundary Conditions        : Solvent-Slab-Solvent
     unit-cell (in bohr)        : [ -18.897261  18.897261]
     expand-cell (in bohr)      : [ -79.840927  79.604712]
     solvent of left (in bohr)  : [ -79.840927   0.000000]
     solvent of right (in bohr) : [   0.000000  79.604712]
     reference of potential     : average of both sides
     #grids to fit at edges of unit-cell =    4
     Laue grid:     9099 Gxy-vectors     FFT dimensions: ( 160, 160, 675)


     Initial potential from superposition of free atoms

     starting charge       8.0000, renormalised to       8.0000

     negative rho (up, down):  7.322E-04 0.000E+00

     Laue-RISM Calculation

     convergence threshold    = 6.310E-06
     iter. #     1  RMS(g-h-1)= 1.343E-01  nbox=  0
     iter. #    11  RMS(g-h-1)= 7.915E-03  nbox= 10
     iter. #    21  RMS(g-h-1)= 5.190E-03  nbox= 20
     iter. #    31  RMS(g-h-1)= 1.828E-03  nbox= 20
     iter. #    41  RMS(g-h-1)= 1.314E-03  nbox= 20
     iter. #    51  RMS(g-h-1)= 9.832E-04  nbox= 20
     iter. #    61  RMS(g-h-1)= 7.351E-04  nbox= 20
     iter. #    71  RMS(g-h-1)= 6.156E-04  nbox= 20
     iter. #    81  RMS(g-h-1)= 4.982E-04  nbox=  9
     iter. #    91  RMS(g-h-1)= 3.227E-04  nbox= 19
     iter. #   101  RMS(g-h-1)= 2.330E-04  nbox= 20
     iter. #   111  RMS(g-h-1)= 1.653E-04  nbox= 20
     iter. #   121  RMS(g-h-1)= 1.475E-04  nbox= 20
     iter. #   131  RMS(g-h-1)= 1.220E-04  nbox= 20
     iter. #   141  RMS(g-h-1)= 9.946E-05  nbox= 20
     iter. #   151  RMS(g-h-1)= 8.086E-05  nbox= 20
     iter. #   161  RMS(g-h-1)= 7.338E-05  nbox= 20
     iter. #   171  RMS(g-h-1)= 5.110E-05  nbox= 10
     iter. #   181  RMS(g-h-1)= 3.098E-05  nbox= 20
     iter. #   191  RMS(g-h-1)= 2.503E-05  nbox= 20
     iter. #   201  RMS(g-h-1)= 2.149E-05  nbox=  8
     iter. #   211  RMS(g-h-1)= 1.747E-05  nbox=  2
     iter. #   221  RMS(g-h-1)= 1.329E-05  nbox= 12
     iter. #   231  RMS(g-h-1)= 7.959E-06  nbox= 20
     iter. #   236  RMS(g-h-1)= 5.837E-06  nbox= 20

     End of Laue-RISM calculation


     convergence has been achieved in   236 iterations


     solvent charge   -0.00011, renormalised to    0.00000

     Total number of solvent (in expand-cell)
     H2O         1125.923540
     K+            20.285715
     OH-           20.288427

     Total charge of solvent (in expand-cell)
     H2O            0.002426 e
     K+            20.285715 e
     OH-          -20.288247 e
     Total         -0.000106 e

     Chemical potential of solvation (in expand-cell)
     H2O        GaussFluct   0.187589E+01 kcal/mol
     K+         GaussFluct   0.169108E+00 kcal/mol
     OH-        GaussFluct  -0.155660E-01 kcal/mol
     Total      GaussFluct   0.202943E+01 kcal/mol

     Starting wfcs are    6 randomized atomic wfcs +    2 random wfcs

     total cpu time spent up to now is      283.9 secs

     Self-consistent Calculation

     iteration #  1     ecut=    40.00 Ry     beta= 0.10
     Davidson diagonalization with overlap
     ethr =  1.00E-02,  avg # of iterations =  5.0

     negative rho (up, down):  1.117E-03 0.000E+00

     Laue-RISM Calculation

     convergence threshold    = 6.310E-06
     iter. #     1  RMS(g-h-1)= 2.743E-03  nbox=  0
     iter. #    11  RMS(g-h-1)= 3.705E-04  nbox= 10
     iter. #    21  RMS(g-h-1)= 1.597E-04  nbox= 20
     iter. #    31  RMS(g-h-1)= 8.982E-05  nbox= 20
     iter. #    41  RMS(g-h-1)= 5.726E-05  nbox= 20
     iter. #    51  RMS(g-h-1)= 4.217E-05  nbox= 20
     iter. #    61  RMS(g-h-1)= 3.722E-05  nbox= 20
     iter. #    71  RMS(g-h-1)= 3.415E-05  nbox= 20
     iter. #    81  RMS(g-h-1)= 2.780E-05  nbox= 10
     iter. #    91  RMS(g-h-1)= 1.990E-05  nbox= 20
     iter. #   101  RMS(g-h-1)= 1.471E-05  nbox= 20
     iter. #   111  RMS(g-h-1)= 1.104E-05  nbox= 20
     iter. #   121  RMS(g-h-1)= 8.392E-06  nbox= 20
     iter. #   131  RMS(g-h-1)= 6.122E-06  nbox= 20

     End of Laue-RISM calculation


     convergence has been achieved in   131 iterations


     solvent charge   -0.00328, renormalised to    0.00000

     Total number of solvent (in expand-cell)
     H2O         1125.986220
     K+            20.284083
     OH-           20.285303

     Total charge of solvent (in expand-cell)
     H2O            0.001896 e
     K+            20.284083 e
     OH-          -20.289261 e
     Total         -0.003282 e

     Chemical potential of solvation (in expand-cell)
     H2O        GaussFluct   0.153697E+01 kcal/mol
     K+         GaussFluct   0.101022E+00 kcal/mol
     OH-        GaussFluct   0.270304E-01 kcal/mol
     Total      GaussFluct   0.166502E+01 kcal/mol


     total cpu time spent up to now is      374.1 secs

     total energy              =     -34.74629541 Ry
     estimated scf accuracy    <       0.45880672 Ry

     iteration #  2     ecut=    40.00 Ry     beta= 0.10
     Davidson diagonalization with overlap
     ethr =  5.74E-03,  avg # of iterations =  1.0

     negative rho (up, down):  4.075E-03 0.000E+00

     Laue-RISM Calculation

     convergence threshold    = 6.310E-06
     iter. #     1  RMS(g-h-1)= 8.879E-03  nbox=  0
     iter. #    11  RMS(g-h-1)= 1.360E-03  nbox= 10
     iter. #    21  RMS(g-h-1)= 7.256E-04  nbox= 20
     iter. #    31  RMS(g-h-1)= 3.143E-04  nbox= 20
     iter. #    41  RMS(g-h-1)= 1.977E-04  nbox= 20
     iter. #    51  RMS(g-h-1)= 1.529E-04  nbox= 20
     iter. #    61  RMS(g-h-1)= 1.334E-04  nbox= 20
     iter. #    71  RMS(g-h-1)= 1.168E-04  nbox= 20
     iter. #    81  RMS(g-h-1)= 1.006E-04  nbox=  7
     iter. #    91  RMS(g-h-1)= 7.301E-05  nbox= 17
     iter. #   101  RMS(g-h-1)= 5.728E-05  nbox= 20
     iter. #   111  RMS(g-h-1)= 3.980E-05  nbox= 20
     iter. #   121  RMS(g-h-1)= 3.365E-05  nbox= 20
     iter. #   131  RMS(g-h-1)= 2.700E-05  nbox=  5
     iter. #   141  RMS(g-h-1)= 1.905E-05  nbox= 15
     iter. #   151  RMS(g-h-1)= 1.297E-05  nbox= 20
     iter. #   161  RMS(g-h-1)= 9.336E-06  nbox= 20
     iter. #   171  RMS(g-h-1)= 6.987E-06  nbox= 20
     iter. #   178  RMS(g-h-1)= 5.675E-06  nbox= 20

     End of Laue-RISM calculation


     convergence has been achieved in   178 iterations


     solvent charge   -0.01119, renormalised to    0.00000

     Total number of solvent (in expand-cell)
     H2O         1126.258167
     K+            20.314812
     OH-           20.312587

     Total charge of solvent (in expand-cell)
     H2O           -0.011913 e
     K+            20.314812 e
     OH-          -20.314094 e
     Total         -0.011195 e

     Chemical potential of solvation (in expand-cell)
     H2O        GaussFluct  -0.935028E+00 kcal/mol
     K+         GaussFluct  -0.311668E+00 kcal/mol
     OH-        GaussFluct   0.464851E-02 kcal/mol
     Total      GaussFluct  -0.124205E+01 kcal/mol


     total cpu time spent up to now is      497.0 secs

     total energy              =     -34.63154012 Ry
     estimated scf accuracy    <       0.27220148 Ry

     iteration #  3     ecut=    40.00 Ry     beta= 0.10
     Davidson diagonalization with overlap
     ethr =  3.40E-03,  avg # of iterations =  2.0

     negative rho (up, down):  4.522E-03 0.000E+00

     Laue-RISM Calculation

     convergence threshold    = 5.658E-06
     iter. #     1  RMS(g-h-1)= 1.251E-03  nbox=  0
     iter. #    11  RMS(g-h-1)= 9.546E-05  nbox= 10
     iter. #    21  RMS(g-h-1)= 4.210E-05  nbox= 20
     iter. #    31  RMS(g-h-1)= 1.840E-05  nbox= 20
     iter. #    41  RMS(g-h-1)= 1.259E-05  nbox= 20
     iter. #    51  RMS(g-h-1)= 9.404E-06  nbox= 20
     iter. #    61  RMS(g-h-1)= 7.540E-06  nbox= 20
     iter. #    71  RMS(g-h-1)= 6.375E-06  nbox= 20
     iter. #    77  RMS(g-h-1)= 5.556E-06  nbox=  6

     End of Laue-RISM calculation


     convergence has been achieved in    77 iterations


     solvent charge   -0.00989, renormalised to    0.00000

     Total number of solvent (in expand-cell)
     H2O         1126.296334
     K+            20.321839
     OH-           20.321608

     Total charge of solvent (in expand-cell)
     H2O           -0.011385 e
     K+            20.321839 e
     OH-          -20.320343 e
     Total         -0.009889 e

     Chemical potential of solvation (in expand-cell)
     H2O        GaussFluct  -0.136205E+01 kcal/mol
     K+         GaussFluct  -0.394130E+00 kcal/mol
     OH-        GaussFluct   0.416337E-02 kcal/mol
     Total      GaussFluct  -0.175201E+01 kcal/mol


     total cpu time spent up to now is      551.1 secs

     total energy              =     -34.68454366 Ry
     estimated scf accuracy    <       0.02187747 Ry

     iteration #  4     ecut=    40.00 Ry     beta= 0.10
     Davidson diagonalization with overlap
     ethr =  2.73E-04,  avg # of iterations =  6.0

     negative rho (up, down):  9.570E-03 0.000E+00

     Laue-RISM Calculation

     convergence threshold    = 5.184E-06
     iter. #     1  RMS(g-h-1)= 4.178E-03  nbox=  0
     iter. #    11  RMS(g-h-1)= 6.835E-04  nbox= 10
     iter. #    21  RMS(g-h-1)= 3.390E-04  nbox= 20
     iter. #    31  RMS(g-h-1)= 1.511E-04  nbox= 20
     iter. #    41  RMS(g-h-1)= 1.147E-04  nbox= 20
     iter. #    51  RMS(g-h-1)= 8.663E-05  nbox= 20
     iter. #    61  RMS(g-h-1)= 7.352E-05  nbox= 20
     iter. #    71  RMS(g-h-1)= 6.201E-05  nbox= 20
     iter. #    81  RMS(g-h-1)= 4.447E-05  nbox= 11
     iter. #    91  RMS(g-h-1)= 2.914E-05  nbox= 20
     iter. #   101  RMS(g-h-1)= 2.154E-05  nbox= 20
     iter. #   111  RMS(g-h-1)= 1.804E-05  nbox= 20
     iter. #   121  RMS(g-h-1)= 1.448E-05  nbox= 20
     iter. #   131  RMS(g-h-1)= 1.180E-05  nbox= 20
     iter. #   141  RMS(g-h-1)= 1.067E-05  nbox= 20
     iter. #   151  RMS(g-h-1)= 7.949E-06  nbox= 11
     iter. #   161  RMS(g-h-1)= 6.029E-06  nbox= 20
     iter. #   166  RMS(g-h-1)= 5.078E-06  nbox= 20

     End of Laue-RISM calculation


     convergence has been achieved in   166 iterations


     solvent charge   -0.00808, renormalised to   -0.00000

     Total number of solvent (in expand-cell)
     H2O         1126.592766
     K+            20.373645
     OH-           20.374099

     Total charge of solvent (in expand-cell)
     H2O           -0.006227 e
     K+            20.373645 e
     OH-          -20.375495 e
     Total         -0.008078 e

     Chemical potential of solvation (in expand-cell)
     H2O        GaussFluct  -0.493534E+01 kcal/mol
     K+         GaussFluct  -0.998163E+00 kcal/mol
     OH-        GaussFluct  -0.290816E+00 kcal/mol
     Total      GaussFluct  -0.622432E+01 kcal/mol


     total cpu time spent up to now is      662.9 secs

     total energy              =     -34.68654398 Ry
     estimated scf accuracy    <       0.01581193 Ry

     iteration #  5     ecut=    40.00 Ry     beta= 0.10
     Davidson diagonalization with overlap
     ethr =  1.98E-04,  avg # of iterations =  8.0

     negative rho (up, down):  9.323E-03 0.000E+00

     Laue-RISM Calculation

     convergence threshold    = 3.422E-06
     iter. #     1  RMS(g-h-1)= 1.008E-03  nbox=  0
     iter. #    11  RMS(g-h-1)= 1.347E-04  nbox= 10
     iter. #    21  RMS(g-h-1)= 5.073E-05  nbox= 20
     iter. #    31  RMS(g-h-1)= 3.175E-05  nbox= 20
     iter. #    41  RMS(g-h-1)= 2.202E-05  nbox= 20
     iter. #    51  RMS(g-h-1)= 1.862E-05  nbox= 20
     iter. #    61  RMS(g-h-1)= 1.580E-05  nbox= 20
     iter. #    71  RMS(g-h-1)= 1.285E-05  nbox= 20
     iter. #    81  RMS(g-h-1)= 9.245E-06  nbox= 20
     iter. #    91  RMS(g-h-1)= 7.411E-06  nbox= 20
     iter. #   101  RMS(g-h-1)= 6.565E-06  nbox= 20
     iter. #   111  RMS(g-h-1)= 5.691E-06  nbox= 20
     iter. #   121  RMS(g-h-1)= 5.113E-06  nbox= 20
     iter. #   131  RMS(g-h-1)= 4.547E-06  nbox= 20
     iter. #   141  RMS(g-h-1)= 3.812E-06  nbox= 20
     iter. #   151  RMS(g-h-1)= 3.602E-06  nbox=  2
     iter. #   156  RMS(g-h-1)= 3.394E-06  nbox=  7

     End of Laue-RISM calculation


     convergence has been achieved in   156 iterations


     solvent charge   -0.00600, renormalised to    0.00000

     Total number of solvent (in expand-cell)
     H2O         1126.645495
     K+            20.382215
     OH-           20.382319

     Total charge of solvent (in expand-cell)
     H2O           -0.005554 e
     K+            20.382215 e
     OH-          -20.382663 e
     Total         -0.006002 e

     Chemical potential of solvation (in expand-cell)
     H2O        GaussFluct  -0.558134E+01 kcal/mol
     K+         GaussFluct  -0.110291E+01 kcal/mol
     OH-        GaussFluct  -0.360481E+00 kcal/mol
     Total      GaussFluct  -0.704472E+01 kcal/mol


     total cpu time spent up to now is      772.6 secs

     total energy              =     -34.68585015 Ry
     estimated scf accuracy    <       0.00338243 Ry

     iteration #  6     ecut=    40.00 Ry     beta= 0.10
     Davidson diagonalization with overlap
     ethr =  4.23E-05,  avg # of iterations = 13.0

     negative rho (up, down):  8.696E-03 0.000E+00

     Laue-RISM Calculation

     convergence threshold    = 1.938E-06
     iter. #     1  RMS(g-h-1)= 3.841E-04  nbox=  0
     iter. #    11  RMS(g-h-1)= 5.274E-05  nbox= 10
     iter. #    21  RMS(g-h-1)= 2.017E-05  nbox= 20
     iter. #    31  RMS(g-h-1)= 1.299E-05  nbox= 20
     iter. #    41  RMS(g-h-1)= 8.104E-06  nbox= 20
     iter. #    51  RMS(g-h-1)= 7.416E-06  nbox= 20
     iter. #    61  RMS(g-h-1)= 6.495E-06  nbox=  7
     iter. #    71  RMS(g-h-1)= 4.577E-06  nbox= 17
     iter. #    81  RMS(g-h-1)= 3.651E-06  nbox= 20
     iter. #    91  RMS(g-h-1)= 3.216E-06  nbox=  3
     iter. #   101  RMS(g-h-1)= 2.775E-06  nbox= 13
     iter. #   111  RMS(g-h-1)= 2.529E-06  nbox=  7
     iter. #   121  RMS(g-h-1)= 2.381E-06  nbox= 17
     iter. #   131  RMS(g-h-1)= 2.269E-06  nbox= 11
     iter. #   141  RMS(g-h-1)= 2.145E-06  nbox=  5
     iter. #   151  RMS(g-h-1)= 2.027E-06  nbox= 15
     iter. #   161  RMS(g-h-1)= 1.936E-06  nbox=  9

     End of Laue-RISM calculation


     convergence has been achieved in   161 iterations


     solvent charge   -0.00509, renormalised to   -0.00000

     Total number of solvent (in expand-cell)
     H2O         1126.641866
     K+            20.380815
     OH-           20.380540

     Total charge of solvent (in expand-cell)
     H2O           -0.005638 e
     K+            20.380815 e
     OH-          -20.380267 e
     Total         -0.005090 e

     Chemical potential of solvation (in expand-cell)
     H2O        GaussFluct  -0.550469E+01 kcal/mol
     K+         GaussFluct  -0.108563E+01 kcal/mol
     OH-        GaussFluct  -0.352013E+00 kcal/mol
     Total      GaussFluct  -0.694234E+01 kcal/mol


     total cpu time spent up to now is      876.0 secs

     total energy              =     -34.68701206 Ry
     estimated scf accuracy    <       0.00041051 Ry

     iteration #  7     ecut=    40.00 Ry     beta= 0.10
     Davidson diagonalization with overlap
     ethr =  5.13E-06,  avg # of iterations =  8.0

     negative rho (up, down):  7.900E-03 0.000E+00

     Laue-RISM Calculation

     convergence threshold    = 2.893E-06
     iter. #     1  RMS(g-h-1)= 1.084E-03  nbox=  0
     iter. #    11  RMS(g-h-1)= 1.561E-04  nbox= 10
     iter. #    21  RMS(g-h-1)= 6.274E-05  nbox= 20
     iter. #    31  RMS(g-h-1)= 3.691E-05  nbox= 20
     iter. #    41  RMS(g-h-1)= 2.920E-05  nbox= 20
     iter. #    51  RMS(g-h-1)= 2.295E-05  nbox= 20
     iter. #    61  RMS(g-h-1)= 1.853E-05  nbox= 20
     iter. #    71  RMS(g-h-1)= 1.778E-05  nbox= 20
     iter. #    81  RMS(g-h-1)= 1.653E-05  nbox=  5
     iter. #    91  RMS(g-h-1)= 1.237E-05  nbox= 15
     iter. #   101  RMS(g-h-1)= 7.321E-06  nbox= 20
     iter. #   111  RMS(g-h-1)= 5.934E-06  nbox= 20
     iter. #   121  RMS(g-h-1)= 4.126E-06  nbox= 20
     iter. #   131  RMS(g-h-1)= 3.775E-06  nbox= 20
     iter. #   141  RMS(g-h-1)= 3.071E-06  nbox=  8
     iter. #   146  RMS(g-h-1)= 2.858E-06  nbox= 13

     End of Laue-RISM calculation


     convergence has been achieved in   146 iterations


     solvent charge   -0.00491, renormalised to    0.00000

     Total number of solvent (in expand-cell)
     H2O         1126.701079
     K+            20.395501
     OH-           20.395727

     Total charge of solvent (in expand-cell)
     H2O           -0.005694 e
     K+            20.395501 e
     OH-          -20.394722 e
     Total         -0.004915 e

     Chemical potential of solvation (in expand-cell)
     H2O        GaussFluct  -0.644334E+01 kcal/mol
     K+         GaussFluct  -0.125678E+01 kcal/mol
     OH-        GaussFluct  -0.457730E+00 kcal/mol
     Total      GaussFluct  -0.815785E+01 kcal/mol


     total cpu time spent up to now is      976.8 secs

     total energy              =     -34.68666564 Ry
     estimated scf accuracy    <       0.00181535 Ry

     iteration #  8     ecut=    40.00 Ry     beta= 0.10
     Davidson diagonalization with overlap
     ethr =  5.13E-06,  avg # of iterations =  3.0

     negative rho (up, down):  7.407E-03 0.000E+00

     Laue-RISM Calculation

     convergence threshold    = 1.455E-06
     iter. #     1  RMS(g-h-1)= 5.529E-05  nbox=  0
     iter. #    11  RMS(g-h-1)= 5.959E-06  nbox= 10
     iter. #    21  RMS(g-h-1)= 3.183E-06  nbox= 20
     iter. #    31  RMS(g-h-1)= 2.757E-06  nbox= 20
     iter. #    41  RMS(g-h-1)= 2.514E-06  nbox=  6
     iter. #    51  RMS(g-h-1)= 2.256E-06  nbox= 16
     iter. #    61  RMS(g-h-1)= 2.077E-06  nbox= 10
     iter. #    71  RMS(g-h-1)= 1.978E-06  nbox=  4
     iter. #    81  RMS(g-h-1)= 1.888E-06  nbox= 14
     iter. #    91  RMS(g-h-1)= 1.823E-06  nbox=  8
     iter. #   101  RMS(g-h-1)= 1.739E-06  nbox=  2
     iter. #   111  RMS(g-h-1)= 1.650E-06  nbox= 12
     iter. #   121  RMS(g-h-1)= 1.587E-06  nbox=  6
     iter. #   131  RMS(g-h-1)= 1.528E-06  nbox= 16
     iter. #   141  RMS(g-h-1)= 1.468E-06  nbox= 10
     iter. #   144  RMS(g-h-1)= 1.454E-06  nbox= 13

     End of Laue-RISM calculation


     convergence has been achieved in   144 iterations


     solvent charge   -0.00555, renormalised to    0.00000

     Total number of solvent (in expand-cell)
     H2O         1126.700036
     K+            20.395090
     OH-           20.394963

     Total charge of solvent (in expand-cell)
     H2O           -0.005714 e
     K+            20.395090 e
     OH-          -20.394930 e
     Total         -0.005555 e

     Chemical potential of solvation (in expand-cell)
     H2O        GaussFluct  -0.642846E+01 kcal/mol
     K+         GaussFluct  -0.125505E+01 kcal/mol
     OH-        GaussFluct  -0.458066E+00 kcal/mol
     Total      GaussFluct  -0.814158E+01 kcal/mol


     total cpu time spent up to now is     1067.5 secs

     total energy              =     -34.68679019 Ry
     estimated scf accuracy    <       0.00014169 Ry

     iteration #  9     ecut=    40.00 Ry     beta= 0.10
     Davidson diagonalization with overlap
     c_bands:  1 eigenvalues not converged
     ethr =  1.77E-06,  avg # of iterations = 20.0

     negative rho (up, down):  6.994E-03 0.000E+00

     Laue-RISM Calculation

     convergence threshold    = 1.000E-06
     iter. #     1  RMS(g-h-1)= 7.615E-06  nbox=  0
     iter. #    11  RMS(g-h-1)= 1.697E-06  nbox= 10
     iter. #    21  RMS(g-h-1)= 1.441E-06  nbox= 20
     iter. #    31  RMS(g-h-1)= 1.414E-06  nbox=  9
     iter. #    41  RMS(g-h-1)= 1.392E-06  nbox=  3
     iter. #    51  RMS(g-h-1)= 1.349E-06  nbox= 13
     iter. #    61  RMS(g-h-1)= 1.316E-06  nbox=  7
     iter. #    71  RMS(g-h-1)= 1.275E-06  nbox= 17
     iter. #    81  RMS(g-h-1)= 1.240E-06  nbox= 11
     iter. #    91  RMS(g-h-1)= 1.197E-06  nbox=  5
     iter. #   101  RMS(g-h-1)= 1.160E-06  nbox= 15
     iter. #   111  RMS(g-h-1)= 1.130E-06  nbox=  9
     iter. #   121  RMS(g-h-1)= 1.089E-06  nbox=  3
     iter. #   131  RMS(g-h-1)= 1.050E-06  nbox= 13
     iter. #   141  RMS(g-h-1)= 1.027E-06  nbox=  7
     iter. #   151  RMS(g-h-1)= 1.002E-06  nbox= 17
     iter. #   153  RMS(g-h-1)= 9.991E-07  nbox=  3

     End of Laue-RISM calculation


     convergence has been achieved in   153 iterations


     solvent charge   -0.00575, renormalised to    0.00000

     Total number of solvent (in expand-cell)
     H2O         1126.699317
     K+            20.394963
     OH-           20.394961

     Total charge of solvent (in expand-cell)
     H2O           -0.005721 e
     K+            20.394963 e
     OH-          -20.394987 e
     Total         -0.005746 e

     Chemical potential of solvation (in expand-cell)
     H2O        GaussFluct  -0.642331E+01 kcal/mol
     K+         GaussFluct  -0.125417E+01 kcal/mol
     OH-        GaussFluct  -0.457640E+00 kcal/mol
     Total      GaussFluct  -0.813512E+01 kcal/mol


     total cpu time spent up to now is     1164.3 secs

     total energy              =     -34.68679476 Ry
     estimated scf accuracy    <       0.00003180 Ry

     iteration # 10     ecut=    40.00 Ry     beta= 0.10
     Davidson diagonalization with overlap
     ethr =  3.97E-07,  avg # of iterations =  2.0

     negative rho (up, down):  6.659E-03 0.000E+00

     Laue-RISM Calculation

     convergence threshold    = 1.000E-06
     iter. #     1  RMS(g-h-1)= 2.624E-05  nbox=  0
     iter. #    11  RMS(g-h-1)= 3.257E-06  nbox= 10
     iter. #    21  RMS(g-h-1)= 1.356E-06  nbox= 20
     iter. #    31  RMS(g-h-1)= 1.146E-06  nbox= 20
     iter. #    41  RMS(g-h-1)= 1.070E-06  nbox=  5
     iter. #    51  RMS(g-h-1)= 1.004E-06  nbox= 15
     iter. #    53  RMS(g-h-1)= 9.998E-07  nbox= 17

     End of Laue-RISM calculation


     convergence has been achieved in    53 iterations


     solvent charge   -0.00557, renormalised to    0.00000

     Total number of solvent (in expand-cell)
     H2O         1126.697772
     K+            20.394905
     OH-           20.394849

     Total charge of solvent (in expand-cell)
     H2O           -0.005735 e
     K+            20.394905 e
     OH-          -20.394738 e
     Total         -0.005568 e

     Chemical potential of solvation (in expand-cell)
     H2O        GaussFluct  -0.640722E+01 kcal/mol
     K+         GaussFluct  -0.125226E+01 kcal/mol
     OH-        GaussFluct  -0.454848E+00 kcal/mol
     Total      GaussFluct  -0.811433E+01 kcal/mol


     total cpu time spent up to now is     1201.3 secs

     total energy              =     -34.68678738 Ry
     estimated scf accuracy    <       0.00002524 Ry

     iteration # 11     ecut=    40.00 Ry     beta= 0.10
     Davidson diagonalization with overlap
     ethr =  3.15E-07,  avg # of iterations =  1.0

     negative rho (up, down):  6.401E-03 0.000E+00

     Laue-RISM Calculation

     convergence threshold    = 1.000E-06
     iter. #     1  RMS(g-h-1)= 2.794E-05  nbox=  0
     iter. #    11  RMS(g-h-1)= 3.604E-06  nbox= 10
     iter. #    21  RMS(g-h-1)= 1.525E-06  nbox= 20
     iter. #    31  RMS(g-h-1)= 1.280E-06  nbox= 20
     iter. #    41  RMS(g-h-1)= 1.127E-06  nbox=  6
     iter. #    51  RMS(g-h-1)= 1.043E-06  nbox= 16
     iter. #    57  RMS(g-h-1)= 9.910E-07  nbox=  6

     End of Laue-RISM calculation


     convergence has been achieved in    57 iterations


     solvent charge   -0.00564, renormalised to    0.00000

     Total number of solvent (in expand-cell)
     H2O         1126.696064
     K+            20.394676
     OH-           20.394712

     Total charge of solvent (in expand-cell)
     H2O           -0.005765 e
     K+            20.394676 e
     OH-          -20.394553 e
     Total         -0.005642 e

     Chemical potential of solvation (in expand-cell)
     H2O        GaussFluct  -0.638798E+01 kcal/mol
     K+         GaussFluct  -0.124931E+01 kcal/mol
     OH-        GaussFluct  -0.452924E+00 kcal/mol
     Total      GaussFluct  -0.809021E+01 kcal/mol


     total cpu time spent up to now is     1240.3 secs

     total energy              =     -34.68678105 Ry
     estimated scf accuracy    <       0.00001069 Ry

     iteration # 12     ecut=    40.00 Ry     beta= 0.10
     Davidson diagonalization with overlap
     ethr =  1.34E-07,  avg # of iterations =  2.0

     negative rho (up, down):  6.223E-03 0.000E+00

     Laue-RISM Calculation

     convergence threshold    = 1.000E-06
     iter. #     1  RMS(g-h-1)= 8.022E-06  nbox=  0
     iter. #    11  RMS(g-h-1)= 1.317E-06  nbox= 10
     iter. #    21  RMS(g-h-1)= 1.016E-06  nbox= 20
     iter. #    27  RMS(g-h-1)= 9.977E-07  nbox=  4

     End of Laue-RISM calculation


     convergence has been achieved in    27 iterations


     solvent charge   -0.00542, renormalised to    0.00000

     Total number of solvent (in expand-cell)
     H2O         1126.696023
     K+            20.394859
     OH-           20.394690

     Total charge of solvent (in expand-cell)
     H2O           -0.005761 e
     K+            20.394859 e
     OH-          -20.394521 e
     Total         -0.005423 e

     Chemical potential of solvation (in expand-cell)
     H2O        GaussFluct  -0.638971E+01 kcal/mol
     K+         GaussFluct  -0.125023E+01 kcal/mol
     OH-        GaussFluct  -0.452848E+00 kcal/mol
     Total      GaussFluct  -0.809278E+01 kcal/mol


     total cpu time spent up to now is     1260.6 secs

     total energy              =     -34.68677968 Ry
     estimated scf accuracy    <       0.00000175 Ry

     iteration # 13     ecut=    40.00 Ry     beta= 0.10
     Davidson diagonalization with overlap
     ethr =  2.19E-08,  avg # of iterations =  2.0

     negative rho (up, down):  6.098E-03 0.000E+00

     Laue-RISM Calculation

     convergence threshold    = 1.000E-06
     iter. #     1  RMS(g-h-1)= 7.185E-06  nbox=  0
     iter. #    11  RMS(g-h-1)= 1.309E-06  nbox= 10
     iter. #    21  RMS(g-h-1)= 1.031E-06  nbox= 20
     iter. #    28  RMS(g-h-1)= 9.950E-07  nbox=  4

     End of Laue-RISM calculation


     convergence has been achieved in    28 iterations


     solvent charge   -0.00547, renormalised to    0.00000

     Total number of solvent (in expand-cell)
     H2O         1126.695680
     K+            20.394831
     OH-           20.394701

     Total charge of solvent (in expand-cell)
     H2O           -0.005767 e
     K+            20.394831 e
     OH-          -20.394534 e
     Total         -0.005470 e

     Chemical potential of solvation (in expand-cell)
     H2O        GaussFluct  -0.638660E+01 kcal/mol
     K+         GaussFluct  -0.124985E+01 kcal/mol
     OH-        GaussFluct  -0.452633E+00 kcal/mol
     Total      GaussFluct  -0.808908E+01 kcal/mol


     total cpu time spent up to now is     1281.7 secs

     total energy              =     -34.68677774 Ry
     estimated scf accuracy    <       0.00000058 Ry

     iteration # 14     ecut=    40.00 Ry     beta= 0.10
     Davidson diagonalization with overlap
     ethr =  7.20E-09,  avg # of iterations =  2.0

     negative rho (up, down):  6.016E-03 0.000E+00

     Laue-RISM Calculation

     convergence threshold    = 1.000E-06
     iter. #     1  RMS(g-h-1)= 2.737E-06  nbox=  0
     iter. #    11  RMS(g-h-1)= 1.021E-06  nbox= 10
     iter. #    15  RMS(g-h-1)= 9.988E-07  nbox= 14

     End of Laue-RISM calculation


     convergence has been achieved in    15 iterations


     solvent charge   -0.00543, renormalised to    0.00000

     Total number of solvent (in expand-cell)
     H2O         1126.695463
     K+            20.394869
     OH-           20.394710

     Total charge of solvent (in expand-cell)
     H2O           -0.005763 e
     K+            20.394869 e
     OH-          -20.394539 e
     Total         -0.005433 e

     Chemical potential of solvation (in expand-cell)
     H2O        GaussFluct  -0.638598E+01 kcal/mol
     K+         GaussFluct  -0.124967E+01 kcal/mol
     OH-        GaussFluct  -0.452506E+00 kcal/mol
     Total      GaussFluct  -0.808816E+01 kcal/mol


     total cpu time spent up to now is     1294.3 secs

     total energy              =     -34.68677624 Ry
     estimated scf accuracy    <       0.00000003 Ry

     iteration # 15     ecut=    40.00 Ry     beta= 0.10
     Davidson diagonalization with overlap
     ethr =  3.27E-10,  avg # of iterations =  2.0

     negative rho (up, down):  6.510E-03 0.000E+00

     Laue-RISM Calculation

     convergence threshold    = 1.000E-06
     iter. #     1  RMS(g-h-1)= 3.058E-06  nbox=  0
     iter. #    11  RMS(g-h-1)= 1.088E-06  nbox= 10
     iter. #    18  RMS(g-h-1)= 9.976E-07  nbox= 17

     End of Laue-RISM calculation


     convergence has been achieved in    18 iterations


     solvent charge   -0.00543, renormalised to   -0.00000

     Total number of solvent (in expand-cell)
     H2O         1126.695297
     K+            20.394883
     OH-           20.394710

     Total charge of solvent (in expand-cell)
     H2O           -0.005777 e
     K+            20.394883 e
     OH-          -20.394540 e
     Total         -0.005435 e

     Chemical potential of solvation (in expand-cell)
     H2O        GaussFluct  -0.638498E+01 kcal/mol
     K+         GaussFluct  -0.124975E+01 kcal/mol
     OH-        GaussFluct  -0.452620E+00 kcal/mol
     Total      GaussFluct  -0.808735E+01 kcal/mol


     total cpu time spent up to now is     1308.7 secs

     End of self-consistent calculation

          k = 0.0000 0.0000 0.0000 (115195 PWs)   bands (ev):

   -25.0954 -12.7613  -9.4684  -7.3651  -0.7286  -0.1777   0.1064   0.1069

     the Fermi energy is    -5.5134 ev

!    total energy              =     -34.68677282 Ry
     estimated scf accuracy    <          4.3E-09 Ry
     smearing contrib. (-TS)   =      -0.00000000 Ry
     internal energy E=F+TS    =     -34.68677282 Ry

     The total energy is F=E-TS. E is the sum of the following terms:
     one-electron contribution =     -69.01532738 Ry
     hartree contribution      =      36.01711352 Ry
     xc contribution           =      -8.67816069 Ry
     ewald contribution        =       7.01539500 Ry
     solvation energy (RISM)   =      -0.02579327 Ry

     convergence has been achieved in  15 iterations

     negative rho (up, down):  6.510E-03 0.000E+00

     Forces acting on atoms (cartesian axes, Ry/au):

     atom    1 type  1   force =    -0.00548343   -0.00548167    0.01204105
     atom    2 type  2   force =    -0.00067151   -0.00067372    0.00107722
     atom    3 type  2   force =     0.00615494    0.00615539   -0.01312978

     Total force =     0.021339     Total SCF correction =     0.000086

     Writing all to output data dir ./output/opt.save/ :
     XML data file, charge density, RISM restart, pseudopotentials, RISM molfiles, collected wavefunctions
 
     init_run     :    164.38s CPU    166.78s WALL (       1 calls)
     electrons    :   1006.35s CPU   1025.21s WALL (       1 calls)
     forces       :      0.54s CPU      0.58s WALL (       1 calls)

     Called by init_run:
     wfcinit      :      0.02s CPU      0.03s WALL (       1 calls)
     potinit      :    162.66s CPU    164.95s WALL (       1 calls)
     hinit0       :      0.18s CPU      0.20s WALL (       1 calls)

     Called by electrons:
     c_bands      :      1.13s CPU      1.16s WALL (      15 calls)
     sum_band     :      1.72s CPU      2.52s WALL (      15 calls)
     v_of_rho     :      2.67s CPU      2.87s WALL (      16 calls)
     newd         :      1.92s CPU      2.54s WALL (      16 calls)
     mix_rho      :      0.55s CPU      0.60s WALL (      15 calls)

     Called by c_bands:
     init_us_2    :      0.01s CPU      0.02s WALL (      31 calls)
     regterg      :      1.10s CPU      1.11s WALL (      15 calls)

     Called by *egterg:
     rdiaghg      :      0.01s CPU      0.01s WALL (      92 calls)
     h_psi        :      1.03s CPU      1.04s WALL (      93 calls)
     s_psi        :      0.01s CPU      0.01s WALL (      93 calls)
     g_psi        :      0.00s CPU      0.00s WALL (      77 calls)

     Called by h_psi:
     h_psi:calbec :      0.03s CPU      0.03s WALL (      93 calls)
     vloc_psi     :      0.98s CPU      0.99s WALL (      93 calls)
     add_vuspsi   :      0.01s CPU      0.01s WALL (      93 calls)

     General routines
     calbec       :      0.04s CPU      0.04s WALL (     112 calls)
     fft          :      3.03s CPU      3.39s WALL (     232 calls)
     ffts         :      0.17s CPU      0.21s WALL (      31 calls)
     fftw         :      0.85s CPU      0.86s WALL (     486 calls)
     interpolate  :      0.31s CPU      0.33s WALL (      16 calls)
 
     Parallel routines
     fft_scatt_xy :      9.05s CPU      9.24s WALL (   21086 calls)
     fft_scatt_yz :     91.93s CPU    107.19s WALL (   21086 calls)

     RISM routines
     1DRISM_pre   :      0.00s CPU      0.00s WALL (       1 calls)
     1DRISM_run   :     88.51s CPU    115.58s WALL (       1 calls)
     3DRISM_pre   :      6.76s CPU      6.85s WALL (       1 calls)
     3DRISM_run   :   1153.09s CPU   1172.19s WALL (      16 calls)
     3DRISM_for   :      0.09s CPU      0.09s WALL (       1 calls)
     3DRISM_vsol  :      0.23s CPU      0.25s WALL (      16 calls)
 
     PWSCF        :  21m10.42s CPU  22m15.12s WALL

 
   This run was terminated on:  20:48: 7  29May2024            

=------------------------------------------------------------------------------=
   JOB DONE.
=------------------------------------------------------------------------------=
