
     Program PWSCF v.7.3.1 starts on 29May2024 at 12:23:14 

     This program is part of the open-source Quantum ESPRESSO suite
     for quantum simulation of materials; please cite
         "P. Giannozzi et al., J. Phys.:Condens. Matter 21 395502 (2009);
         "P. Giannozzi et al., J. Phys.:Condens. Matter 29 465901 (2017);
         "P. Giannozzi et al., J. Chem. Phys. 152 154105 (2020);
          URL http://www.quantum-espresso.org", 
     in publications or presentations arising from this work. More details at
     http://www.quantum-espresso.org/quote

     Parallel version (MPI), running on    64 processors

     MPI processes distributed on     1 nodes
     225375 MiB available memory on the printing compute node when the environment starts
 
     Reading input from espresso.pwi

     Current dimensions of program PWSCF are:
     Max number of different atomic species (ntypx) = 10
     Max number of k-points (npk) =  40000
     Max angular momentum in pseudopotentials (lmaxx) =  4
     Message from routine iosys_1drism:
     default density from MOL file(H2O.tip5p.Nishihara.MOL) is used

     gamma-point specific algorithms are used
 
     R & G space division:  proc/nbgrp/npool/nimage =      64
     Subspace diagonalization in iterative solution of the eigenvalue problem:
     a serial algorithm will be used


     Molecule # 1 for H2O read from file:
     ../../pseudo/H2O.tip5p.Nishihara.MOL
     Density:
         0.26741625E+03 cell^-1
         0.49533751E-02 bohr^-3
         0.55506881E+02 mol/L
         0.99997200E+00 g/cm^3
     Permittivity:
        78.500000
     Number of atoms:   5
     Atoms:
       #  atom      X (angs)      Y (angs)      Z (angs)      Q (e)         E (kcal/mol)  S (angs)
       1  O/h2o     0.00000000   -0.06556000    0.00000000    0.00000000    0.16000000    3.12000000
       2  H/h2o     0.75695000    0.52032000    0.00000000    0.24100000    0.04600000    1.00000000
       3  H/h2o    -0.75695000    0.52032000    0.00000000    0.24100000    0.04600000    1.00000000
       4  L/h2o     0.00000000   -0.46971000    0.57154000   -0.24100000    0.04600000    1.80000000
       5  L/h2o     0.00000000   -0.46971000   -0.57154000   -0.24100000    0.04600000    1.80000000


     Molecule # 2 for K+ read from file:
     ../../pseudo/K+.Hagiwara.MOL
     Density:
         0.48177136E+01 cell^-1
         0.89238937E-04 bohr^-3
         0.10000000E+01 mol/L
         0.39098300E-01 g/cm^3
     Number of atoms:   1
     Atoms:
       #  atom      X (angs)      Y (angs)      Z (angs)      Q (e)         E (kcal/mol)  S (angs)
       1  K         0.00000000    0.00000000    0.00000000    1.00000000    0.00032800    4.93462800


     Molecule # 3 for OH- read from file:
     ../../pseudo/OH-.oplsaa.MOL
     Density:
         0.48177136E+01 cell^-1
         0.89238937E-04 bohr^-3
         0.10000000E+01 mol/L
         0.17007340E-01 g/cm^3
     Number of atoms:   2
     Atoms:
       #  atom      X (angs)      Y (angs)      Z (angs)      Q (e)         E (kcal/mol)  S (angs)
       1  O/oh      0.00000000    0.00000000    0.00000000   -1.30000000    0.25000000    3.20000000
       2  H/oh      0.95300000    0.00000000    0.00000000    0.30000000    0.04600000    1.00000000


     1D-RISM info
     ------------
     closure equation        =           KH
     temperature             =     300.0000  kelvin
     coulomb smearing radius =       2.0000  bohr
     number of solvent sites =            8
     number of grids         =         5973
     maximum of R-space      =     999.8326  bohr
     maximum of G-space      =      18.7632  bohr^-1
     number of iterations    =        15000
     convergence threshold   =      1.0E-08
     Gaussian width of bonds =       0.3162  bohr
     size of MDIIS           =           20
     step of MDIIS           =       0.2000
     number of processes     =           64


     1D-RISM Calculation

     iter. #     1  RMS(g-h-1)= 7.798E-04  nbox=  0  T= 2400.00K
     iter. #   101  RMS(g-h-1)= 1.222E-06  nbox= 20  T= 1600.00K
     iter. #   201  RMS(g-h-1)= 3.438E-06  nbox= 20  T=  711.11K
     iter. #   301  RMS(g-h-1)= 2.056E-06  nbox= 20  T=  474.07K
     iter. #   401  RMS(g-h-1)= 1.763E-06  nbox= 20  T=  316.05K
     iter. #   501  RMS(g-h-1)= 4.727E-07  nbox= 20  T=  300.00K
     iter. #   601  RMS(g-h-1)= 1.645E-07  nbox= 20  T=  300.00K
     iter. #   701  RMS(g-h-1)= 1.081E-07  nbox= 20  T=  300.00K
     iter. #   801  RMS(g-h-1)= 8.835E-08  nbox= 20  T=  300.00K
     iter. #   901  RMS(g-h-1)= 6.970E-08  nbox= 20  T=  300.00K
     iter. #  1001  RMS(g-h-1)= 6.055E-08  nbox= 20  T=  300.00K
     iter. #  1101  RMS(g-h-1)= 5.293E-08  nbox= 20  T=  300.00K
     iter. #  1201  RMS(g-h-1)= 4.761E-08  nbox= 20  T=  300.00K
     iter. #  1301  RMS(g-h-1)= 4.352E-08  nbox= 20  T=  300.00K
     iter. #  1401  RMS(g-h-1)= 3.851E-08  nbox= 20  T=  300.00K
     iter. #  1501  RMS(g-h-1)= 3.419E-08  nbox= 20  T=  300.00K
     iter. #  1601  RMS(g-h-1)= 3.267E-08  nbox= 20  T=  300.00K
     iter. #  1701  RMS(g-h-1)= 3.106E-08  nbox= 20  T=  300.00K
     iter. #  1801  RMS(g-h-1)= 3.048E-08  nbox= 20  T=  300.00K
     iter. #  1901  RMS(g-h-1)= 3.489E-08  nbox= 20  T=  300.00K
     iter. #  2001  RMS(g-h-1)= 2.958E-08  nbox= 20  T=  300.00K
     iter. #  2101  RMS(g-h-1)= 2.944E-08  nbox= 20  T=  300.00K
     iter. #  2201  RMS(g-h-1)= 2.907E-08  nbox= 20  T=  300.00K
     iter. #  2301  RMS(g-h-1)= 2.885E-08  nbox= 20  T=  300.00K
     iter. #  2401  RMS(g-h-1)= 2.669E-08  nbox= 20  T=  300.00K
     iter. #  2501  RMS(g-h-1)= 2.543E-08  nbox= 20  T=  300.00K
     iter. #  2601  RMS(g-h-1)= 2.527E-08  nbox= 20  T=  300.00K
     iter. #  2701  RMS(g-h-1)= 2.375E-08  nbox= 20  T=  300.00K
     iter. #  2801  RMS(g-h-1)= 2.284E-08  nbox= 20  T=  300.00K
     iter. #  2901  RMS(g-h-1)= 2.201E-08  nbox= 20  T=  300.00K
     iter. #  3001  RMS(g-h-1)= 2.062E-08  nbox= 20  T=  300.00K
     iter. #  3101  RMS(g-h-1)= 1.942E-08  nbox= 20  T=  300.00K
     iter. #  3201  RMS(g-h-1)= 1.805E-08  nbox= 20  T=  300.00K
     iter. #  3301  RMS(g-h-1)= 1.705E-08  nbox= 20  T=  300.00K
     iter. #  3401  RMS(g-h-1)= 1.618E-08  nbox= 20  T=  300.00K
     iter. #  3501  RMS(g-h-1)= 1.528E-08  nbox= 20  T=  300.00K
     iter. #  3601  RMS(g-h-1)= 1.447E-08  nbox= 20  T=  300.00K
     iter. #  3701  RMS(g-h-1)= 1.382E-08  nbox= 20  T=  300.00K
     iter. #  3801  RMS(g-h-1)= 1.322E-08  nbox= 20  T=  300.00K
     iter. #  3901  RMS(g-h-1)= 1.258E-08  nbox= 20  T=  300.00K
     iter. #  4001  RMS(g-h-1)= 1.198E-08  nbox= 20  T=  300.00K
     iter. #  4101  RMS(g-h-1)= 1.140E-08  nbox= 20  T=  300.00K
     iter. #  4201  RMS(g-h-1)= 1.082E-08  nbox= 20  T=  300.00K
     iter. #  4301  RMS(g-h-1)= 1.035E-08  nbox= 20  T=  300.00K
     iter. #  4370  RMS(g-h-1)= 1.000E-08  nbox= 20  T=  300.00K

     End of 1D-RISM calculation


     convergence has been achieved in  4370 iterations


     Chemical potential of solvation

     H2O        H2O        Closure      0.144050E+01 kcal/mol
                           GaussFluct  -0.702204E+01 kcal/mol

                K+         Closure     -0.280552E+00 kcal/mol
                           GaussFluct  -0.350091E+00 kcal/mol

                OH-        Closure     -0.749912E+00 kcal/mol
                           GaussFluct  -0.841451E+00 kcal/mol

                Total      Closure      0.410036E+00 kcal/mol
                           GaussFluct  -0.821359E+01 kcal/mol

     K+         H2O        Closure     -0.155726E+02 kcal/mol
                           GaussFluct  -0.194325E+02 kcal/mol

                K+         Closure      0.351545E+06 kcal/mol
                           GaussFluct   0.351545E+06 kcal/mol

                OH-        Closure     -0.351595E+06 kcal/mol
                           GaussFluct  -0.351595E+06 kcal/mol

                Total      Closure     -0.662658E+02 kcal/mol
                           GaussFluct  -0.701837E+02 kcal/mol

     OH-        H2O        Closure     -0.416252E+02 kcal/mol
                           GaussFluct  -0.467063E+02 kcal/mol

                K+         Closure     -0.351595E+06 kcal/mol
                           GaussFluct  -0.351595E+06 kcal/mol

                OH-        Closure      0.351544E+06 kcal/mol
                           GaussFluct   0.351544E+06 kcal/mol

                Total      Closure     -0.925524E+02 kcal/mol
                           GaussFluct  -0.977560E+02 kcal/mol

 
     Parallelization info
     --------------------
     sticks:   dense  smooth     PW     G-vecs:    dense   smooth      PW
     Min         567     284     69                81548    28832    3594
     Max         570     286     72                81558    28844    3612
     Sum       36381   18197   4537              5219483  1845573  230389
 
     Using Slab Decomposition
 


     bravais-lattice index     =            0
     lattice parameter (alat)  =      37.7945  a.u.
     unit-cell volume          =   53986.6760 (a.u.)^3
     number of atoms/cell      =            3
     number of atomic types    =            2
     number of electrons       =         8.00
     number of Kohn-Sham states=            8
     kinetic-energy cutoff     =      40.0000  Ry
     charge density cutoff     =     320.0000  Ry
     scf convergence threshold =      1.0E-08
     mixing beta               =       0.1000
     number of iterations used =            8  plain     mixing
     energy convergence thresh.=      1.0E-05
     force convergence thresh. =      1.0E-04
     Exchange-correlation=  SLA  PW   PBX  PBC
                           (   1   4   3   4   0   0   0)
     nstep                     =          200


     Effective Screening Medium Method
     =================================
     Boundary Conditions: Vacuum-Slab-Vacuum
     total charge in unit cell        =   0.0000
     grid points for fit at edges     =        4 
 

     celldm(1)=  37.794522  celldm(2)=   0.000000  celldm(3)=   0.000000
     celldm(4)=   0.000000  celldm(5)=   0.000000  celldm(6)=   0.000000

     crystal axes: (cart. coord. in units of alat)
               a(1) = (   1.000000   0.000000   0.000000 )  
               a(2) = (   0.000000   1.000000   0.000000 )  
               a(3) = (   0.000000   0.000000   1.000000 )  

     reciprocal axes: (cart. coord. in units 2 pi/alat)
               b(1) = (  1.000000  0.000000  0.000000 )  
               b(2) = (  0.000000  1.000000  0.000000 )  
               b(3) = (  0.000000  0.000000  1.000000 )  


     PseudoPot. # 1 for O  read from file:
     ../../pseudo/o_pbe_v1.2.uspp.F.UPF
     MD5 check sum: 734c27235a0248c51dbae37a1fbe46ec
     Pseudo is Ultrasoft + core correction, Zval =  6.0
     Generated by new atomic code, or converted to UPF format
     Using radial grid of  737 points,  5 beta functions with: 
                l(1) =   0
                l(2) =   0
                l(3) =   1
                l(4) =   1
                l(5) =   2
     Q(r) pseudized with  8 coefficients,  rinner =    0.900   0.900   0.900
                                                       0.900   0.900

     PseudoPot. # 2 for H  read from file:
     ../../pseudo/h_pbe_v1.4.uspp.F.UPF
     MD5 check sum: 761ae9a214b05c3daf00ab9f6b793d6f
     Pseudo is Ultrasoft, Zval =  1.0
     Generated by new atomic code, or converted to UPF format
     Using radial grid of  615 points,  2 beta functions with: 
                l(1) =   0
                l(2) =   0
     Q(r) pseudized with  8 coefficients,  rinner =    0.700

     atomic species   valence    mass     pseudopotential
     O                 6.00    15.99900     O ( 1.00)
     H                 1.00     1.00800     H ( 1.00)

     No symmetry found



   Cartesian axes

     site n.     atom                  positions (alat units)
         1        O      tau(   1) = (   0.0000000   0.0000000   0.0000000  )
         2        H      tau(   2) = (   0.0300000   0.0300000   0.0300000  )
         3        H      tau(   3) = (   0.0300000   0.0300000  -0.0300000  )

     number of k points=     1  Gaussian smearing, width (Ry)=  0.0100
                       cart. coord. in units 2pi/alat
        k(    1) = (   0.0000000   0.0000000   0.0000000), wk =   2.0000000

     Dense  grid:  2609742 G-vectors     FFT dimensions: ( 216, 216, 216)

     Smooth grid:   922787 G-vectors     FFT dimensions: ( 160, 160, 160)

     Estimated max dynamical RAM per process >     102.31 MB

     Estimated total dynamical RAM >       6.39 GB

     Solute:
       # atom     E (kcal/mol)  S (angs)
       1  O       0.15540000    3.16600000    given
       2  H       0.04600000    1.00000000    given
       3  H       0.04600000    1.00000000    given


     Laue-RISM info
     --------------
     closure equation        =           KH
     temperature             =     300.0000  kelvin
     coulomb smearing radius =       2.0000  bohr
     number of solvent sites =            6
     solvent sites           =    O/h2o   H/h2o   L/h2o       K
     solvent sites           =     O/oh    H/oh
     number of iterations    =        15000
     convergence threshold   =      1.0E-06
     convergence level       =       0.8000
     size of MDIIS           =           20
     step of MDIIS           =       0.1000
     solvent cutoff          =     160.0000  Ry
     Custom grid:   922787 G-vectors     FFT dimensions: ( 160, 160, 160)

     Boundary Conditions        : Solvent-Slab-Solvent
     unit-cell (in bohr)        : [ -18.897261  18.897261]
     expand-cell (in bohr)      : [ -79.840929  79.604713]
     solvent of left (in bohr)  : [ -79.840929   0.000000]
     solvent of right (in bohr) : [   0.000000  79.604713]
     reference of potential     : average of both sides
     #grids to fit at edges of unit-cell =    4
     Laue grid:     9099 Gxy-vectors     FFT dimensions: ( 160, 160, 675)


     Initial potential from superposition of free atoms

     starting charge       8.0000, renormalised to       8.0000

     negative rho (up, down):  7.484E-04 0.000E+00

     Laue-RISM Calculation

     convergence threshold    = 6.310E-06
     iter. #     1  RMS(g-h-1)= 1.339E-01  nbox=  0
     iter. #    11  RMS(g-h-1)= 7.830E-03  nbox= 10
     iter. #    21  RMS(g-h-1)= 5.165E-03  nbox= 20
     iter. #    31  RMS(g-h-1)= 1.943E-03  nbox= 20
     iter. #    41  RMS(g-h-1)= 1.442E-03  nbox= 20
     iter. #    51  RMS(g-h-1)= 9.934E-04  nbox= 20
     iter. #    61  RMS(g-h-1)= 8.300E-04  nbox= 20
     iter. #    71  RMS(g-h-1)= 7.080E-04  nbox=  5
     iter. #    81  RMS(g-h-1)= 5.004E-04  nbox= 15
     iter. #    91  RMS(g-h-1)= 3.228E-04  nbox= 20
     iter. #   101  RMS(g-h-1)= 2.420E-04  nbox= 20
     iter. #   111  RMS(g-h-1)= 1.915E-04  nbox= 20
     iter. #   121  RMS(g-h-1)= 1.510E-04  nbox=  4
     iter. #   131  RMS(g-h-1)= 8.901E-05  nbox= 14
     iter. #   141  RMS(g-h-1)= 5.857E-05  nbox= 20
     iter. #   151  RMS(g-h-1)= 3.327E-05  nbox= 20
     iter. #   161  RMS(g-h-1)= 3.093E-05  nbox= 20
     iter. #   171  RMS(g-h-1)= 2.541E-05  nbox=  7
     iter. #   181  RMS(g-h-1)= 1.844E-05  nbox= 17
     iter. #   191  RMS(g-h-1)= 1.333E-05  nbox= 20
     iter. #   201  RMS(g-h-1)= 1.135E-05  nbox= 20
     iter. #   211  RMS(g-h-1)= 8.470E-06  nbox= 20
     iter. #   221  RMS(g-h-1)= 7.590E-06  nbox= 20
     iter. #   228  RMS(g-h-1)= 6.283E-06  nbox= 20

     End of Laue-RISM calculation


     convergence has been achieved in   228 iterations


     solvent charge   -0.01436, renormalised to   -0.00000

     Total number of solvent (in expand-cell)
     H2O         1125.938140
     K+            20.285096
     OH-           20.287090

     Total charge of solvent (in expand-cell)
     H2O           -0.013767 e
     K+            20.285096 e
     OH-          -20.285687 e
     Total         -0.014358 e

     Chemical potential of solvation (in expand-cell)
     H2O        GaussFluct   0.178112E+01 kcal/mol
     K+         GaussFluct   0.168475E+00 kcal/mol
     OH-        GaussFluct  -0.172284E-01 kcal/mol
     Total      GaussFluct   0.193236E+01 kcal/mol

     Starting wfcs are    6 randomized atomic wfcs +    2 random wfcs

     total cpu time spent up to now is      275.8 secs

     Self-consistent Calculation

     iteration #  1     ecut=    40.00 Ry     beta= 0.10
     Davidson diagonalization with overlap
     ethr =  1.00E-02,  avg # of iterations =  6.0

     negative rho (up, down):  1.126E-03 0.000E+00

     Laue-RISM Calculation

     convergence threshold    = 6.310E-06
     iter. #     1  RMS(g-h-1)= 2.765E-03  nbox=  0
     iter. #    11  RMS(g-h-1)= 3.807E-04  nbox= 10
     iter. #    21  RMS(g-h-1)= 1.703E-04  nbox= 20
     iter. #    31  RMS(g-h-1)= 8.470E-05  nbox= 20
     iter. #    41  RMS(g-h-1)= 5.427E-05  nbox= 20
     iter. #    51  RMS(g-h-1)= 4.342E-05  nbox= 20
     iter. #    61  RMS(g-h-1)= 3.400E-05  nbox= 20
     iter. #    71  RMS(g-h-1)= 3.111E-05  nbox= 20
     iter. #    81  RMS(g-h-1)= 2.469E-05  nbox= 11
     iter. #    91  RMS(g-h-1)= 1.695E-05  nbox= 20
     iter. #   101  RMS(g-h-1)= 1.226E-05  nbox= 20
     iter. #   111  RMS(g-h-1)= 1.035E-05  nbox= 20
     iter. #   121  RMS(g-h-1)= 8.595E-06  nbox=  5
     iter. #   129  RMS(g-h-1)= 6.188E-06  nbox= 13

     End of Laue-RISM calculation


     convergence has been achieved in   129 iterations


     solvent charge   -0.01791, renormalised to   -0.00000

     Total number of solvent (in expand-cell)
     H2O         1126.012841
     K+            20.285519
     OH-           20.285377

     Total charge of solvent (in expand-cell)
     H2O           -0.013179 e
     K+            20.285519 e
     OH-          -20.290255 e
     Total         -0.017915 e

     Chemical potential of solvation (in expand-cell)
     H2O        GaussFluct   0.128283E+01 kcal/mol
     K+         GaussFluct   0.139112E+00 kcal/mol
     OH-        GaussFluct  -0.218792E-01 kcal/mol
     Total      GaussFluct   0.140007E+01 kcal/mol


     total cpu time spent up to now is      362.1 secs

     total energy              =     -34.67589620 Ry
     estimated scf accuracy    <       0.42924646 Ry

     iteration #  2     ecut=    40.00 Ry     beta= 0.10
     Davidson diagonalization with overlap
     ethr =  5.37E-03,  avg # of iterations =  1.0

     negative rho (up, down):  3.690E-03 0.000E+00

     Laue-RISM Calculation

     convergence threshold    = 6.310E-06
     iter. #     1  RMS(g-h-1)= 8.138E-03  nbox=  0
     iter. #    11  RMS(g-h-1)= 1.267E-03  nbox= 10
     iter. #    21  RMS(g-h-1)= 6.538E-04  nbox= 20
     iter. #    31  RMS(g-h-1)= 2.868E-04  nbox= 20
     iter. #    41  RMS(g-h-1)= 2.009E-04  nbox= 20
     iter. #    51  RMS(g-h-1)= 1.849E-04  nbox= 20
     iter. #    61  RMS(g-h-1)= 1.480E-04  nbox=  6
     iter. #    71  RMS(g-h-1)= 1.098E-04  nbox= 16
     iter. #    81  RMS(g-h-1)= 8.328E-05  nbox= 20
     iter. #    91  RMS(g-h-1)= 6.879E-05  nbox= 20
     iter. #   101  RMS(g-h-1)= 5.899E-05  nbox=  6
     iter. #   111  RMS(g-h-1)= 3.950E-05  nbox= 16
     iter. #   121  RMS(g-h-1)= 2.280E-05  nbox= 20
     iter. #   131  RMS(g-h-1)= 1.733E-05  nbox= 20
     iter. #   141  RMS(g-h-1)= 1.476E-05  nbox= 20
     iter. #   151  RMS(g-h-1)= 1.249E-05  nbox= 20
     iter. #   161  RMS(g-h-1)= 8.976E-06  nbox= 11
     iter. #   171  RMS(g-h-1)= 6.272E-06  nbox= 20

     End of Laue-RISM calculation


     convergence has been achieved in   171 iterations


     solvent charge   -0.01332, renormalised to    0.00000

     Total number of solvent (in expand-cell)
     H2O         1126.319486
     K+            20.321619
     OH-           20.320458

     Total charge of solvent (in expand-cell)
     H2O           -0.011514 e
     K+            20.321619 e
     OH-          -20.323428 e
     Total         -0.013323 e

     Chemical potential of solvation (in expand-cell)
     H2O        GaussFluct  -0.181136E+01 kcal/mol
     K+         GaussFluct  -0.166786E+00 kcal/mol
     OH-        GaussFluct  -0.324534E+00 kcal/mol
     Total      GaussFluct  -0.230267E+01 kcal/mol


     total cpu time spent up to now is      474.8 secs

     total energy              =     -34.58922063 Ry
     estimated scf accuracy    <       0.24307774 Ry

     iteration #  3     ecut=    40.00 Ry     beta= 0.10
     Davidson diagonalization with overlap
     ethr =  3.04E-03,  avg # of iterations =  2.0

     negative rho (up, down):  5.012E-03 0.000E+00

     Laue-RISM Calculation

     convergence threshold    = 5.703E-06
     iter. #     1  RMS(g-h-1)= 1.430E-03  nbox=  0
     iter. #    11  RMS(g-h-1)= 1.329E-04  nbox= 10
     iter. #    21  RMS(g-h-1)= 5.681E-05  nbox= 20
     iter. #    31  RMS(g-h-1)= 3.016E-05  nbox= 20
     iter. #    41  RMS(g-h-1)= 2.349E-05  nbox= 20
     iter. #    51  RMS(g-h-1)= 2.190E-05  nbox= 20
     iter. #    61  RMS(g-h-1)= 1.821E-05  nbox= 20
     iter. #    71  RMS(g-h-1)= 1.642E-05  nbox= 20
     iter. #    81  RMS(g-h-1)= 1.581E-05  nbox= 20
     iter. #    91  RMS(g-h-1)= 1.181E-05  nbox= 11
     iter. #   101  RMS(g-h-1)= 7.775E-06  nbox= 20
     iter. #   110  RMS(g-h-1)= 5.489E-06  nbox= 20

     End of Laue-RISM calculation


     convergence has been achieved in   110 iterations


     solvent charge   -0.01145, renormalised to    0.00000

     Total number of solvent (in expand-cell)
     H2O         1126.407515
     K+            20.337683
     OH-           20.336961

     Total charge of solvent (in expand-cell)
     H2O           -0.010385 e
     K+            20.337683 e
     OH-          -20.338746 e
     Total         -0.011448 e

     Chemical potential of solvation (in expand-cell)
     H2O        GaussFluct  -0.289492E+01 kcal/mol
     K+         GaussFluct  -0.290014E+00 kcal/mol
     OH-        GaussFluct  -0.492636E+00 kcal/mol
     Total      GaussFluct  -0.367757E+01 kcal/mol


     total cpu time spent up to now is      551.9 secs

     total energy              =     -34.62959664 Ry
     estimated scf accuracy    <       0.02252057 Ry

     iteration #  4     ecut=    40.00 Ry     beta= 0.10
     Davidson diagonalization with overlap
     ethr =  2.82E-04,  avg # of iterations =  8.0

     negative rho (up, down):  9.911E-03 0.000E+00

     Laue-RISM Calculation

     convergence threshold    = 4.895E-06
     iter. #     1  RMS(g-h-1)= 4.706E-03  nbox=  0
     iter. #    11  RMS(g-h-1)= 6.881E-04  nbox= 10
     iter. #    21  RMS(g-h-1)= 3.244E-04  nbox= 20
     iter. #    31  RMS(g-h-1)= 1.570E-04  nbox= 20
     iter. #    41  RMS(g-h-1)= 1.197E-04  nbox= 20
     iter. #    51  RMS(g-h-1)= 9.825E-05  nbox= 20
     iter. #    61  RMS(g-h-1)= 7.797E-05  nbox= 20
     iter. #    71  RMS(g-h-1)= 7.344E-05  nbox=  2
     iter. #    81  RMS(g-h-1)= 5.518E-05  nbox= 12
     iter. #    91  RMS(g-h-1)= 3.765E-05  nbox= 20
     iter. #   101  RMS(g-h-1)= 2.596E-05  nbox= 20
     iter. #   111  RMS(g-h-1)= 2.118E-05  nbox= 20
     iter. #   121  RMS(g-h-1)= 1.811E-05  nbox= 20
     iter. #   131  RMS(g-h-1)= 1.442E-05  nbox= 20
     iter. #   141  RMS(g-h-1)= 1.338E-05  nbox= 20
     iter. #   151  RMS(g-h-1)= 1.120E-05  nbox=  9
     iter. #   161  RMS(g-h-1)= 8.390E-06  nbox=  3
     iter. #   171  RMS(g-h-1)= 6.270E-06  nbox= 13
     iter. #   181  RMS(g-h-1)= 5.488E-06  nbox= 20
     iter. #   191  RMS(g-h-1)= 5.002E-06  nbox=  9
     iter. #   196  RMS(g-h-1)= 4.833E-06  nbox= 14

     End of Laue-RISM calculation


     convergence has been achieved in   196 iterations


     solvent charge    0.00473, renormalised to    0.00000

     Total number of solvent (in expand-cell)
     H2O         1126.752670
     K+            20.397371
     OH-           20.397118

     Total charge of solvent (in expand-cell)
     H2O            0.003987 e
     K+            20.397371 e
     OH-          -20.396628 e
     Total          0.004729 e

     Chemical potential of solvation (in expand-cell)
     H2O        GaussFluct  -0.744441E+01 kcal/mol
     K+         GaussFluct  -0.812059E+00 kcal/mol
     OH-        GaussFluct  -0.133701E+01 kcal/mol
     Total      GaussFluct  -0.959348E+01 kcal/mol


     total cpu time spent up to now is      680.5 secs

     total energy              =     -34.63170046 Ry
     estimated scf accuracy    <       0.01277589 Ry

     iteration #  5     ecut=    40.00 Ry     beta= 0.10
     Davidson diagonalization with overlap
     ethr =  1.60E-04,  avg # of iterations =  8.0

     negative rho (up, down):  9.313E-03 0.000E+00

     Laue-RISM Calculation

     convergence threshold    = 2.370E-06
     iter. #     1  RMS(g-h-1)= 3.754E-04  nbox=  0
     iter. #    11  RMS(g-h-1)= 5.256E-05  nbox= 10
     iter. #    21  RMS(g-h-1)= 1.949E-05  nbox= 20
     iter. #    31  RMS(g-h-1)= 1.145E-05  nbox= 20
     iter. #    41  RMS(g-h-1)= 9.122E-06  nbox= 20
     iter. #    51  RMS(g-h-1)= 7.759E-06  nbox= 20
     iter. #    61  RMS(g-h-1)= 6.972E-06  nbox= 20
     iter. #    71  RMS(g-h-1)= 6.109E-06  nbox=  6
     iter. #    81  RMS(g-h-1)= 5.001E-06  nbox= 16
     iter. #    91  RMS(g-h-1)= 4.358E-06  nbox= 10
     iter. #   101  RMS(g-h-1)= 4.072E-06  nbox=  4
     iter. #   111  RMS(g-h-1)= 3.837E-06  nbox= 14
     iter. #   121  RMS(g-h-1)= 3.703E-06  nbox=  8
     iter. #   131  RMS(g-h-1)= 3.548E-06  nbox=  2
     iter. #   141  RMS(g-h-1)= 3.345E-06  nbox= 12
     iter. #   151  RMS(g-h-1)= 3.241E-06  nbox=  6
     iter. #   161  RMS(g-h-1)= 3.042E-06  nbox= 16
     iter. #   171  RMS(g-h-1)= 2.941E-06  nbox= 10
     iter. #   181  RMS(g-h-1)= 2.854E-06  nbox=  4
     iter. #   191  RMS(g-h-1)= 2.704E-06  nbox= 14
     iter. #   201  RMS(g-h-1)= 2.643E-06  nbox=  8
     iter. #   211  RMS(g-h-1)= 2.544E-06  nbox=  2
     iter. #   221  RMS(g-h-1)= 2.456E-06  nbox= 12
     iter. #   231  RMS(g-h-1)= 2.419E-06  nbox=  6
     iter. #   236  RMS(g-h-1)= 2.355E-06  nbox= 11

     End of Laue-RISM calculation


     convergence has been achieved in   236 iterations


     solvent charge    0.00262, renormalised to    0.00000

     Total number of solvent (in expand-cell)
     H2O         1126.780946
     K+            20.401798
     OH-           20.401751

     Total charge of solvent (in expand-cell)
     H2O            0.002546 e
     K+            20.401798 e
     OH-          -20.401725 e
     Total          0.002620 e

     Chemical potential of solvation (in expand-cell)
     H2O        GaussFluct  -0.784040E+01 kcal/mol
     K+         GaussFluct  -0.859874E+00 kcal/mol
     OH-        GaussFluct  -0.141735E+01 kcal/mol
     Total      GaussFluct  -0.101176E+02 kcal/mol


     total cpu time spent up to now is      826.3 secs

     total energy              =     -34.63269569 Ry
     estimated scf accuracy    <       0.00086523 Ry

     iteration #  6     ecut=    40.00 Ry     beta= 0.10
     Davidson diagonalization with overlap
     ethr =  1.08E-05,  avg # of iterations = 16.0

     negative rho (up, down):  8.788E-03 0.000E+00

     Laue-RISM Calculation

     convergence threshold    = 2.180E-06
     iter. #     1  RMS(g-h-1)= 5.315E-04  nbox=  0
     iter. #    11  RMS(g-h-1)= 7.986E-05  nbox= 10
     iter. #    21  RMS(g-h-1)= 3.068E-05  nbox= 20
     iter. #    31  RMS(g-h-1)= 1.831E-05  nbox= 20
     iter. #    41  RMS(g-h-1)= 1.283E-05  nbox= 20
     iter. #    51  RMS(g-h-1)= 1.001E-05  nbox= 20
     iter. #    61  RMS(g-h-1)= 8.756E-06  nbox= 20
     iter. #    71  RMS(g-h-1)= 8.105E-06  nbox=  3
     iter. #    81  RMS(g-h-1)= 5.466E-06  nbox= 13
     iter. #    91  RMS(g-h-1)= 3.724E-06  nbox= 20
     iter. #   101  RMS(g-h-1)= 3.197E-06  nbox= 20
     iter. #   111  RMS(g-h-1)= 2.673E-06  nbox= 20
     iter. #   121  RMS(g-h-1)= 2.467E-06  nbox= 20
     iter. #   131  RMS(g-h-1)= 2.301E-06  nbox= 10
     iter. #   138  RMS(g-h-1)= 2.172E-06  nbox= 17

     End of Laue-RISM calculation


     convergence has been achieved in   138 iterations


     solvent charge    0.00376, renormalised to    0.00000

     Total number of solvent (in expand-cell)
     H2O         1126.756746
     K+            20.395934
     OH-           20.395916

     Total charge of solvent (in expand-cell)
     H2O            0.003868 e
     K+            20.395934 e
     OH-          -20.396045 e
     Total          0.003758 e

     Chemical potential of solvation (in expand-cell)
     H2O        GaussFluct  -0.743172E+01 kcal/mol
     K+         GaussFluct  -0.803194E+00 kcal/mol
     OH-        GaussFluct  -0.134054E+01 kcal/mol
     Total      GaussFluct  -0.957545E+01 kcal/mol


     total cpu time spent up to now is      921.2 secs

     total energy              =     -34.63302872 Ry
     estimated scf accuracy    <       0.00063535 Ry

     iteration #  7     ecut=    40.00 Ry     beta= 0.10
     Davidson diagonalization with overlap
     ethr =  7.94E-06,  avg # of iterations =  2.0

     negative rho (up, down):  7.826E-03 0.000E+00

     Laue-RISM Calculation

     convergence threshold    = 2.908E-06
     iter. #     1  RMS(g-h-1)= 1.489E-03  nbox=  0
     iter. #    11  RMS(g-h-1)= 2.196E-04  nbox= 10
     iter. #    21  RMS(g-h-1)= 8.527E-05  nbox= 20
     iter. #    31  RMS(g-h-1)= 5.139E-05  nbox= 20
     iter. #    41  RMS(g-h-1)= 4.120E-05  nbox= 20
     iter. #    51  RMS(g-h-1)= 2.713E-05  nbox= 20
     iter. #    61  RMS(g-h-1)= 2.391E-05  nbox= 20
     iter. #    71  RMS(g-h-1)= 2.132E-05  nbox=  3
     iter. #    81  RMS(g-h-1)= 1.430E-05  nbox= 13
     iter. #    91  RMS(g-h-1)= 8.829E-06  nbox= 20
     iter. #   101  RMS(g-h-1)= 6.760E-06  nbox= 20
     iter. #   111  RMS(g-h-1)= 5.636E-06  nbox= 20
     iter. #   121  RMS(g-h-1)= 5.061E-06  nbox=  3
     iter. #   131  RMS(g-h-1)= 4.036E-06  nbox= 13
     iter. #   141  RMS(g-h-1)= 3.605E-06  nbox=  7
     iter. #   151  RMS(g-h-1)= 3.237E-06  nbox= 17
     iter. #   161  RMS(g-h-1)= 3.033E-06  nbox= 11
     iter. #   169  RMS(g-h-1)= 2.894E-06  nbox=  3

     End of Laue-RISM calculation


     convergence has been achieved in   169 iterations


     solvent charge    0.00332, renormalised to    0.00000

     Total number of solvent (in expand-cell)
     H2O         1126.860083
     K+            20.418207
     OH-           20.417712

     Total charge of solvent (in expand-cell)
     H2O            0.003264 e
     K+            20.418207 e
     OH-          -20.418152 e
     Total          0.003319 e

     Chemical potential of solvation (in expand-cell)
     H2O        GaussFluct  -0.909451E+01 kcal/mol
     K+         GaussFluct  -0.102745E+01 kcal/mol
     OH-        GaussFluct  -0.167015E+01 kcal/mol
     Total      GaussFluct  -0.117921E+02 kcal/mol


     total cpu time spent up to now is     1030.5 secs

     total energy              =     -34.63262468 Ry
     estimated scf accuracy    <       0.00184992 Ry

     iteration #  8     ecut=    40.00 Ry     beta= 0.10
     Davidson diagonalization with overlap
     ethr =  7.94E-06,  avg # of iterations =  2.0

     negative rho (up, down):  7.283E-03 0.000E+00

     Laue-RISM Calculation

     convergence threshold    = 1.192E-06
     iter. #     1  RMS(g-h-1)= 1.124E-04  nbox=  0
     iter. #    11  RMS(g-h-1)= 1.467E-05  nbox= 10
     iter. #    21  RMS(g-h-1)= 5.714E-06  nbox= 20
     iter. #    31  RMS(g-h-1)= 4.079E-06  nbox= 20
     iter. #    41  RMS(g-h-1)= 3.414E-06  nbox= 20
     iter. #    51  RMS(g-h-1)= 3.164E-06  nbox=  4
     iter. #    61  RMS(g-h-1)= 2.921E-06  nbox= 14
     iter. #    71  RMS(g-h-1)= 2.707E-06  nbox=  8
     iter. #    81  RMS(g-h-1)= 2.573E-06  nbox=  2
     iter. #    91  RMS(g-h-1)= 2.491E-06  nbox= 12
     iter. #   101  RMS(g-h-1)= 2.429E-06  nbox=  6
     iter. #   111  RMS(g-h-1)= 2.348E-06  nbox= 16
     iter. #   121  RMS(g-h-1)= 2.245E-06  nbox= 10
     iter. #   131  RMS(g-h-1)= 2.164E-06  nbox=  4
     iter. #   141  RMS(g-h-1)= 2.086E-06  nbox= 14
     iter. #   151  RMS(g-h-1)= 2.014E-06  nbox=  8
     iter. #   161  RMS(g-h-1)= 1.947E-06  nbox=  2
     iter. #   171  RMS(g-h-1)= 1.900E-06  nbox= 12
     iter. #   181  RMS(g-h-1)= 1.843E-06  nbox=  6
     iter. #   191  RMS(g-h-1)= 1.785E-06  nbox= 16
     iter. #   201  RMS(g-h-1)= 1.743E-06  nbox= 10
     iter. #   211  RMS(g-h-1)= 1.702E-06  nbox=  4
     iter. #   221  RMS(g-h-1)= 1.654E-06  nbox= 14
     iter. #   231  RMS(g-h-1)= 1.621E-06  nbox=  8
     iter. #   241  RMS(g-h-1)= 1.584E-06  nbox=  2
     iter. #   251  RMS(g-h-1)= 1.553E-06  nbox= 12
     iter. #   261  RMS(g-h-1)= 1.522E-06  nbox=  6
     iter. #   271  RMS(g-h-1)= 1.503E-06  nbox= 16
     iter. #   281  RMS(g-h-1)= 1.488E-06  nbox= 10
     iter. #   291  RMS(g-h-1)= 1.475E-06  nbox=  2
     iter. #   301  RMS(g-h-1)= 1.420E-06  nbox= 12
     iter. #   311  RMS(g-h-1)= 1.381E-06  nbox=  6
     iter. #   321  RMS(g-h-1)= 1.350E-06  nbox= 16
     iter. #   331  RMS(g-h-1)= 1.337E-06  nbox= 10
     iter. #   341  RMS(g-h-1)= 1.313E-06  nbox=  4
     iter. #   351  RMS(g-h-1)= 1.287E-06  nbox= 14
     iter. #   361  RMS(g-h-1)= 1.271E-06  nbox=  8
     iter. #   371  RMS(g-h-1)= 1.244E-06  nbox=  2
     iter. #   381  RMS(g-h-1)= 1.231E-06  nbox= 12
     iter. #   391  RMS(g-h-1)= 1.215E-06  nbox=  6
     iter. #   401  RMS(g-h-1)= 1.190E-06  nbox= 16

     End of Laue-RISM calculation


     convergence has been achieved in   401 iterations


     solvent charge    0.00372, renormalised to    0.00000

     Total number of solvent (in expand-cell)
     H2O         1126.862588
     K+            20.418878
     OH-           20.418379

     Total charge of solvent (in expand-cell)
     H2O            0.003196 e
     K+            20.418878 e
     OH-          -20.418358 e
     Total          0.003716 e

     Chemical potential of solvation (in expand-cell)
     H2O        GaussFluct  -0.915151E+01 kcal/mol
     K+         GaussFluct  -0.103561E+01 kcal/mol
     OH-        GaussFluct  -0.167745E+01 kcal/mol
     Total      GaussFluct  -0.118646E+02 kcal/mol


     total cpu time spent up to now is     1272.6 secs

     total energy              =     -34.63277951 Ry
     estimated scf accuracy    <       0.00006767 Ry

     iteration #  9     ecut=    40.00 Ry     beta= 0.10
     Davidson diagonalization with overlap
     ethr =  8.46E-07,  avg # of iterations =  7.0

     negative rho (up, down):  6.840E-03 0.000E+00

     Laue-RISM Calculation

     convergence threshold    = 1.000E-06
     iter. #     1  RMS(g-h-1)= 2.047E-04  nbox=  0
     iter. #    11  RMS(g-h-1)= 3.002E-05  nbox= 10
     iter. #    21  RMS(g-h-1)= 9.845E-06  nbox= 20
     iter. #    31  RMS(g-h-1)= 5.745E-06  nbox= 20
     iter. #    41  RMS(g-h-1)= 4.332E-06  nbox= 20
     iter. #    51  RMS(g-h-1)= 3.197E-06  nbox= 20
     iter. #    61  RMS(g-h-1)= 2.847E-06  nbox= 20
     iter. #    71  RMS(g-h-1)= 2.328E-06  nbox=  5
     iter. #    81  RMS(g-h-1)= 1.721E-06  nbox= 15
     iter. #    91  RMS(g-h-1)= 1.392E-06  nbox=  9
     iter. #   101  RMS(g-h-1)= 1.268E-06  nbox=  3
     iter. #   111  RMS(g-h-1)= 1.204E-06  nbox= 13
     iter. #   121  RMS(g-h-1)= 1.174E-06  nbox=  7
     iter. #   131  RMS(g-h-1)= 1.155E-06  nbox= 17
     iter. #   141  RMS(g-h-1)= 1.144E-06  nbox= 11
     iter. #   151  RMS(g-h-1)= 1.131E-06  nbox=  5
     iter. #   161  RMS(g-h-1)= 1.113E-06  nbox= 15
     iter. #   171  RMS(g-h-1)= 1.101E-06  nbox=  9
     iter. #   181  RMS(g-h-1)= 1.088E-06  nbox=  3
     iter. #   191  RMS(g-h-1)= 1.076E-06  nbox= 13
     iter. #   201  RMS(g-h-1)= 1.062E-06  nbox=  7
     iter. #   211  RMS(g-h-1)= 1.042E-06  nbox= 17
     iter. #   221  RMS(g-h-1)= 1.021E-06  nbox= 11
     iter. #   231  RMS(g-h-1)= 1.006E-06  nbox=  5
     iter. #   235  RMS(g-h-1)= 9.996E-07  nbox=  9

     End of Laue-RISM calculation


     convergence has been achieved in   235 iterations


     solvent charge    0.00377, renormalised to    0.00000

     Total number of solvent (in expand-cell)
     H2O         1126.846994
     K+            20.416016
     OH-           20.415563

     Total charge of solvent (in expand-cell)
     H2O            0.003341 e
     K+            20.416016 e
     OH-          -20.415590 e
     Total          0.003767 e

     Chemical potential of solvation (in expand-cell)
     H2O        GaussFluct  -0.891175E+01 kcal/mol
     K+         GaussFluct  -0.100429E+01 kcal/mol
     OH-        GaussFluct  -0.162908E+01 kcal/mol
     Total      GaussFluct  -0.115451E+02 kcal/mol


     total cpu time spent up to now is     1416.9 secs

     total energy              =     -34.63274701 Ry
     estimated scf accuracy    <       0.00002371 Ry

     iteration # 10     ecut=    40.00 Ry     beta= 0.10
     Davidson diagonalization with overlap
     ethr =  2.96E-07,  avg # of iterations =  2.0

     negative rho (up, down):  6.527E-03 0.000E+00

     Laue-RISM Calculation

     convergence threshold    = 1.000E-06
     iter. #     1  RMS(g-h-1)= 8.051E-05  nbox=  0
     iter. #    11  RMS(g-h-1)= 1.085E-05  nbox= 10
     iter. #    21  RMS(g-h-1)= 4.048E-06  nbox= 20
     iter. #    31  RMS(g-h-1)= 2.311E-06  nbox= 20
     iter. #    41  RMS(g-h-1)= 1.669E-06  nbox= 20
     iter. #    51  RMS(g-h-1)= 1.551E-06  nbox= 20
     iter. #    61  RMS(g-h-1)= 1.392E-06  nbox=  5
     iter. #    71  RMS(g-h-1)= 1.164E-06  nbox= 15
     iter. #    81  RMS(g-h-1)= 1.064E-06  nbox=  9
     iter. #    91  RMS(g-h-1)= 1.028E-06  nbox=  3
     iter. #   101  RMS(g-h-1)= 1.008E-06  nbox= 13
     iter. #   109  RMS(g-h-1)= 9.999E-07  nbox=  5

     End of Laue-RISM calculation


     convergence has been achieved in   109 iterations


     solvent charge    0.00382, renormalised to    0.00000

     Total number of solvent (in expand-cell)
     H2O         1126.853787
     K+            20.417420
     OH-           20.416909

     Total charge of solvent (in expand-cell)
     H2O            0.003285 e
     K+            20.417420 e
     OH-          -20.416888 e
     Total          0.003817 e

     Chemical potential of solvation (in expand-cell)
     H2O        GaussFluct  -0.901814E+01 kcal/mol
     K+         GaussFluct  -0.101849E+01 kcal/mol
     OH-        GaussFluct  -0.165082E+01 kcal/mol
     Total      GaussFluct  -0.116874E+02 kcal/mol


     total cpu time spent up to now is     1490.2 secs

     total energy              =     -34.63275882 Ry
     estimated scf accuracy    <       0.00000520 Ry

     iteration # 11     ecut=    40.00 Ry     beta= 0.10
     Davidson diagonalization with overlap
     ethr =  6.50E-08,  avg # of iterations =  2.0

     negative rho (up, down):  6.283E-03 0.000E+00

     Laue-RISM Calculation

     convergence threshold    = 1.000E-06
     iter. #     1  RMS(g-h-1)= 1.168E-05  nbox=  0
     iter. #    11  RMS(g-h-1)= 1.796E-06  nbox= 10
     iter. #    21  RMS(g-h-1)= 1.098E-06  nbox= 20
     iter. #    31  RMS(g-h-1)= 1.031E-06  nbox= 20
     iter. #    41  RMS(g-h-1)= 1.005E-06  nbox=  8
     iter. #    47  RMS(g-h-1)= 9.988E-07  nbox= 14

     End of Laue-RISM calculation


     convergence has been achieved in    47 iterations


     solvent charge    0.00370, renormalised to    0.00000

     Total number of solvent (in expand-cell)
     H2O         1126.854810
     K+            20.417557
     OH-           20.417116

     Total charge of solvent (in expand-cell)
     H2O            0.003269 e
     K+            20.417557 e
     OH-          -20.417124 e
     Total          0.003701 e

     Chemical potential of solvation (in expand-cell)
     H2O        GaussFluct  -0.903344E+01 kcal/mol
     K+         GaussFluct  -0.102021E+01 kcal/mol
     OH-        GaussFluct  -0.165429E+01 kcal/mol
     Total      GaussFluct  -0.117079E+02 kcal/mol


     total cpu time spent up to now is     1523.2 secs

     total energy              =     -34.63275799 Ry
     estimated scf accuracy    <       0.00000024 Ry

     iteration # 12     ecut=    40.00 Ry     beta= 0.10
     Davidson diagonalization with overlap
     ethr =  2.97E-09,  avg # of iterations =  2.0

     negative rho (up, down):  6.096E-03 0.000E+00

     Laue-RISM Calculation

     convergence threshold    = 1.000E-06
     iter. #     1  RMS(g-h-1)= 1.064E-05  nbox=  0
     iter. #    11  RMS(g-h-1)= 1.700E-06  nbox= 10
     iter. #    21  RMS(g-h-1)= 1.076E-06  nbox= 20
     iter. #    31  RMS(g-h-1)= 1.011E-06  nbox= 20
     iter. #    38  RMS(g-h-1)= 9.963E-07  nbox=  5

     End of Laue-RISM calculation


     convergence has been achieved in    38 iterations


     solvent charge    0.00358, renormalised to    0.00000

     Total number of solvent (in expand-cell)
     H2O         1126.854085
     K+            20.417348
     OH-           20.416986

     Total charge of solvent (in expand-cell)
     H2O            0.003283 e
     K+            20.417348 e
     OH-          -20.417053 e
     Total          0.003579 e

     Chemical potential of solvation (in expand-cell)
     H2O        GaussFluct  -0.902221E+01 kcal/mol
     K+         GaussFluct  -0.101860E+01 kcal/mol
     OH-        GaussFluct  -0.165183E+01 kcal/mol
     Total      GaussFluct  -0.116926E+02 kcal/mol


     total cpu time spent up to now is     1550.3 secs

     total energy              =     -34.63275487 Ry
     estimated scf accuracy    <       0.00000005 Ry

     iteration # 13     ecut=    40.00 Ry     beta= 0.10
     Davidson diagonalization with overlap
     ethr =  6.55E-10,  avg # of iterations =  2.0

     negative rho (up, down):  5.968E-03 0.000E+00

     Laue-RISM Calculation

     convergence threshold    = 1.000E-06
     iter. #     1  RMS(g-h-1)= 4.046E-06  nbox=  0
     iter. #    11  RMS(g-h-1)= 1.106E-06  nbox= 10
     iter. #    18  RMS(g-h-1)= 9.937E-07  nbox= 17

     End of Laue-RISM calculation


     convergence has been achieved in    18 iterations


     solvent charge    0.00374, renormalised to   -0.00000

     Total number of solvent (in expand-cell)
     H2O         1126.854229
     K+            20.417472
     OH-           20.416964

     Total charge of solvent (in expand-cell)
     H2O            0.003264 e
     K+            20.417472 e
     OH-          -20.416993 e
     Total          0.003743 e

     Chemical potential of solvation (in expand-cell)
     H2O        GaussFluct  -0.902491E+01 kcal/mol
     K+         GaussFluct  -0.101953E+01 kcal/mol
     OH-        GaussFluct  -0.165223E+01 kcal/mol
     Total      GaussFluct  -0.116967E+02 kcal/mol


     total cpu time spent up to now is     1564.9 secs

     total energy              =     -34.63275342 Ry
     estimated scf accuracy    <       0.00000003 Ry

     iteration # 14     ecut=    40.00 Ry     beta= 0.10
     Davidson diagonalization with overlap
     ethr =  3.88E-10,  avg # of iterations =  2.0

     negative rho (up, down):  6.344E-03 0.000E+00

     Laue-RISM Calculation

     convergence threshold    = 1.000E-06
     iter. #     1  RMS(g-h-1)= 1.309E-06  nbox=  0
     iter. #     9  RMS(g-h-1)= 9.971E-07  nbox=  8

     End of Laue-RISM calculation


     convergence has been achieved in     9 iterations


     solvent charge    0.00376, renormalised to    0.00000

     Total number of solvent (in expand-cell)
     H2O         1126.854295
     K+            20.417483
     OH-           20.416970

     Total charge of solvent (in expand-cell)
     H2O            0.003273 e
     K+            20.417483 e
     OH-          -20.416998 e
     Total          0.003759 e

     Chemical potential of solvation (in expand-cell)
     H2O        GaussFluct  -0.902557E+01 kcal/mol
     K+         GaussFluct  -0.101977E+01 kcal/mol
     OH-        GaussFluct  -0.165250E+01 kcal/mol
     Total      GaussFluct  -0.116978E+02 kcal/mol


     total cpu time spent up to now is     1573.9 secs

     End of self-consistent calculation

          k = 0.0000 0.0000 0.0000 (115195 PWs)   bands (ev):

   -25.0427 -10.9255 -10.4905  -7.3170  -0.8731  -0.1937   0.0963   0.1125

     the Fermi energy is    -5.4960 ev

!    total energy              =     -34.63274821 Ry
     estimated scf accuracy    <          4.3E-10 Ry
     smearing contrib. (-TS)   =      -0.00000000 Ry
     internal energy E=F+TS    =     -34.63274821 Ry

     The total energy is F=E-TS. E is the sum of the following terms:
     one-electron contribution =     -68.01589155 Ry
     hartree contribution      =      35.51009606 Ry
     xc contribution           =      -8.58698406 Ry
     ewald contribution        =       6.49733964 Ry
     solvation energy (RISM)   =      -0.03730831 Ry

     convergence has been achieved in  14 iterations

     negative rho (up, down):  6.344E-03 0.000E+00

     Forces acting on atoms (cartesian axes, Ry/au):

     atom    1 type  1   force =     0.11988986    0.11988291   -0.00000503
     atom    2 type  2   force =    -0.05994485   -0.05994142    0.05338701
     atom    3 type  2   force =    -0.05994501   -0.05994149   -0.05338711

     Total force =     0.220949     Total SCF correction =     0.000068

     BFGS Geometry Optimization
     Energy error            =      4.9E-02 Ry
     Gradient error          =      1.2E-01 Ry/Bohr

     number of scf cycles    =   1
     number of bfgs steps    =   0

     energy             new  =     -34.6327482145 Ry

     new trust radius        =       0.1695449509 bohr
     new conv_thr            =       0.0000000100 Ry


ATOMIC_POSITIONS (angstrom)
O                0.0634429828        0.0634393022       -0.0000026636
H                0.5682785515        0.5682803678        0.6282511881
H                0.5682784656        0.5682803300       -0.6282512400



     Writing config-only to output data dir ./output/opt.save/ :
     XML data file
     NEW-OLD atomic charge density approx. for the potential

     negative rho (up, down):  6.460E-03 0.000E+00

     Laue-RISM Calculation

     convergence threshold    = 6.310E-06
     iter. #     1  RMS(g-h-1)= 9.503E-02  nbox=  0
     iter. #    11  RMS(g-h-1)= 5.815E-03  nbox= 10
     iter. #    21  RMS(g-h-1)= 3.436E-03  nbox= 20
     iter. #    31  RMS(g-h-1)= 1.475E-03  nbox= 20
     iter. #    41  RMS(g-h-1)= 8.889E-04  nbox= 20
     iter. #    51  RMS(g-h-1)= 5.455E-04  nbox= 20
     iter. #    61  RMS(g-h-1)= 4.936E-04  nbox= 20
     iter. #    71  RMS(g-h-1)= 3.315E-04  nbox= 20
     iter. #    81  RMS(g-h-1)= 3.023E-04  nbox= 20
     iter. #    91  RMS(g-h-1)= 2.352E-04  nbox=  6
     iter. #   101  RMS(g-h-1)= 1.492E-04  nbox= 16
     iter. #   111  RMS(g-h-1)= 8.347E-05  nbox= 20
     iter. #   121  RMS(g-h-1)= 6.445E-05  nbox= 20
     iter. #   131  RMS(g-h-1)= 5.131E-05  nbox= 20
     iter. #   141  RMS(g-h-1)= 4.322E-05  nbox= 20
     iter. #   151  RMS(g-h-1)= 3.432E-05  nbox= 20
     iter. #   161  RMS(g-h-1)= 2.843E-05  nbox= 20
     iter. #   171  RMS(g-h-1)= 2.389E-05  nbox=  3
     iter. #   181  RMS(g-h-1)= 1.660E-05  nbox= 13
     iter. #   191  RMS(g-h-1)= 1.062E-05  nbox= 20
     iter. #   201  RMS(g-h-1)= 8.932E-06  nbox= 20
     iter. #   211  RMS(g-h-1)= 7.929E-06  nbox=  5
     iter. #   221  RMS(g-h-1)= 7.008E-06  nbox= 15
     iter. #   231  RMS(g-h-1)= 6.209E-06  nbox=  9

     End of Laue-RISM calculation


     convergence has been achieved in   231 iterations


     solvent charge    0.00267, renormalised to   -0.00000

     Total number of solvent (in expand-cell)
     H2O         1126.796010
     K+            20.419395
     OH-           20.419535

     Total charge of solvent (in expand-cell)
     H2O            0.003305 e
     K+            20.419395 e
     OH-          -20.420027 e
     Total          0.002672 e

     Chemical potential of solvation (in expand-cell)
     H2O        GaussFluct  -0.841375E+01 kcal/mol
     K+         GaussFluct  -0.111361E+01 kcal/mol
     OH-        GaussFluct  -0.151956E+01 kcal/mol
     Total      GaussFluct  -0.110469E+02 kcal/mol


     total cpu time spent up to now is     1726.1 secs

     Self-consistent Calculation

     iteration #  1     ecut=    40.00 Ry     beta= 0.10
     Davidson diagonalization with overlap
     c_bands:  1 eigenvalues not converged
     ethr =  1.00E-06,  avg # of iterations = 20.0

     negative rho (up, down):  5.934E-03 0.000E+00

     Laue-RISM Calculation

     convergence threshold    = 5.371E-06
     iter. #     1  RMS(g-h-1)= 4.415E-04  nbox=  0
     iter. #    11  RMS(g-h-1)= 5.423E-05  nbox= 10
     iter. #    21  RMS(g-h-1)= 2.038E-05  nbox= 20
     iter. #    31  RMS(g-h-1)= 1.246E-05  nbox= 20
     iter. #    41  RMS(g-h-1)= 9.513E-06  nbox= 20
     iter. #    51  RMS(g-h-1)= 8.141E-06  nbox= 20
     iter. #    61  RMS(g-h-1)= 7.152E-06  nbox= 20
     iter. #    71  RMS(g-h-1)= 5.853E-06  nbox=  9
     iter. #    77  RMS(g-h-1)= 5.354E-06  nbox= 15

     End of Laue-RISM calculation


     convergence has been achieved in    77 iterations


     solvent charge    0.00346, renormalised to    0.00000

     Total number of solvent (in expand-cell)
     H2O         1126.785613
     K+            20.417602
     OH-           20.416065

     Total charge of solvent (in expand-cell)
     H2O            0.003410 e
     K+            20.417602 e
     OH-          -20.417550 e
     Total          0.003461 e

     Chemical potential of solvation (in expand-cell)
     H2O        GaussFluct  -0.822374E+01 kcal/mol
     K+         GaussFluct  -0.110506E+01 kcal/mol
     OH-        GaussFluct  -0.146725E+01 kcal/mol
     Total      GaussFluct  -0.107960E+02 kcal/mol


     total cpu time spent up to now is     1781.6 secs

     total energy              =     -34.66097583 Ry
     estimated scf accuracy    <       0.01803143 Ry

     iteration #  2     ecut=    40.00 Ry     beta= 0.10
     Davidson diagonalization with overlap
     ethr =  2.25E-04,  avg # of iterations =  1.0

     negative rho (up, down):  7.162E-03 0.000E+00

     Laue-RISM Calculation

     convergence threshold    = 4.735E-06
     iter. #     1  RMS(g-h-1)= 1.506E-03  nbox=  0
     iter. #    11  RMS(g-h-1)= 1.847E-04  nbox= 10
     iter. #    21  RMS(g-h-1)= 6.994E-05  nbox= 20
     iter. #    31  RMS(g-h-1)= 4.308E-05  nbox= 20
     iter. #    41  RMS(g-h-1)= 2.922E-05  nbox= 20
     iter. #    51  RMS(g-h-1)= 2.488E-05  nbox= 20
     iter. #    61  RMS(g-h-1)= 2.166E-05  nbox= 20
     iter. #    71  RMS(g-h-1)= 1.744E-05  nbox= 11
     iter. #    81  RMS(g-h-1)= 1.077E-05  nbox= 20
     iter. #    91  RMS(g-h-1)= 8.392E-06  nbox= 20
     iter. #   101  RMS(g-h-1)= 6.497E-06  nbox= 20
     iter. #   111  RMS(g-h-1)= 5.615E-06  nbox= 20
     iter. #   121  RMS(g-h-1)= 5.168E-06  nbox=  6
     iter. #   126  RMS(g-h-1)= 4.724E-06  nbox= 11

     End of Laue-RISM calculation


     convergence has been achieved in   126 iterations


     solvent charge    0.00280, renormalised to    0.00000

     Total number of solvent (in expand-cell)
     H2O         1126.741508
     K+            20.407849
     OH-           20.408081

     Total charge of solvent (in expand-cell)
     H2O            0.004857 e
     K+            20.407849 e
     OH-          -20.409902 e
     Total          0.002803 e

     Chemical potential of solvation (in expand-cell)
     H2O        GaussFluct  -0.751646E+01 kcal/mol
     K+         GaussFluct  -0.105249E+01 kcal/mol
     OH-        GaussFluct  -0.125575E+01 kcal/mol
     Total      GaussFluct  -0.982470E+01 kcal/mol


     total cpu time spent up to now is     1865.4 secs

     total energy              =     -34.65621388 Ry
     estimated scf accuracy    <       0.01129753 Ry

     iteration #  3     ecut=    40.00 Ry     beta= 0.10
     Davidson diagonalization with overlap
     ethr =  1.41E-04,  avg # of iterations =  2.0

     negative rho (up, down):  6.950E-03 0.000E+00

     Laue-RISM Calculation

     convergence threshold    = 2.776E-06
     iter. #     1  RMS(g-h-1)= 2.415E-04  nbox=  0
     iter. #    11  RMS(g-h-1)= 3.254E-05  nbox= 10
     iter. #    21  RMS(g-h-1)= 1.130E-05  nbox= 20
     iter. #    31  RMS(g-h-1)= 6.466E-06  nbox= 20
     iter. #    41  RMS(g-h-1)= 5.615E-06  nbox= 20
     iter. #    51  RMS(g-h-1)= 4.652E-06  nbox= 20
     iter. #    61  RMS(g-h-1)= 4.498E-06  nbox=  2
     iter. #    71  RMS(g-h-1)= 4.084E-06  nbox= 12
     iter. #    81  RMS(g-h-1)= 3.776E-06  nbox=  6
     iter. #    91  RMS(g-h-1)= 3.641E-06  nbox= 16
     iter. #   101  RMS(g-h-1)= 3.393E-06  nbox= 10
     iter. #   111  RMS(g-h-1)= 3.217E-06  nbox=  4
     iter. #   121  RMS(g-h-1)= 3.061E-06  nbox= 14
     iter. #   131  RMS(g-h-1)= 2.875E-06  nbox=  8
     iter. #   138  RMS(g-h-1)= 2.768E-06  nbox= 15

     End of Laue-RISM calculation


     convergence has been achieved in   138 iterations


     solvent charge    0.00481, renormalised to    0.00000

     Total number of solvent (in expand-cell)
     H2O         1126.727469
     K+            20.406084
     OH-           20.406231

     Total charge of solvent (in expand-cell)
     H2O            0.004966 e
     K+            20.406084 e
     OH-          -20.406237 e
     Total          0.004812 e

     Chemical potential of solvation (in expand-cell)
     H2O        GaussFluct  -0.731660E+01 kcal/mol
     K+         GaussFluct  -0.103674E+01 kcal/mol
     OH-        GaussFluct  -0.119820E+01 kcal/mol
     Total      GaussFluct  -0.955154E+01 kcal/mol


     total cpu time spent up to now is     1952.8 secs

     total energy              =     -34.65815617 Ry
     estimated scf accuracy    <       0.00155754 Ry

     iteration #  4     ecut=    40.00 Ry     beta= 0.10
     Davidson diagonalization with overlap
     ethr =  1.95E-05,  avg # of iterations =  1.0

     negative rho (up, down):  1.099E-02 0.000E+00

     Laue-RISM Calculation

     convergence threshold    = 2.478E-06
     iter. #     1  RMS(g-h-1)= 1.045E-03  nbox=  0
     iter. #    11  RMS(g-h-1)= 1.450E-04  nbox= 10
     iter. #    21  RMS(g-h-1)= 5.204E-05  nbox= 20
     iter. #    31  RMS(g-h-1)= 2.647E-05  nbox= 20
     iter. #    41  RMS(g-h-1)= 1.890E-05  nbox= 20
     iter. #    51  RMS(g-h-1)= 1.483E-05  nbox= 20
     iter. #    61  RMS(g-h-1)= 1.205E-05  nbox= 20
     iter. #    71  RMS(g-h-1)= 1.047E-05  nbox= 20
     iter. #    81  RMS(g-h-1)= 9.297E-06  nbox=  5
     iter. #    91  RMS(g-h-1)= 5.934E-06  nbox= 15
     iter. #   101  RMS(g-h-1)= 4.603E-06  nbox= 20
     iter. #   111  RMS(g-h-1)= 4.070E-06  nbox=  2
     iter. #   121  RMS(g-h-1)= 3.353E-06  nbox= 12
     iter. #   131  RMS(g-h-1)= 3.086E-06  nbox=  6
     iter. #   141  RMS(g-h-1)= 2.963E-06  nbox= 16
     iter. #   151  RMS(g-h-1)= 2.753E-06  nbox= 10
     iter. #   161  RMS(g-h-1)= 2.633E-06  nbox=  4
     iter. #   171  RMS(g-h-1)= 2.529E-06  nbox= 14
     iter. #   176  RMS(g-h-1)= 2.474E-06  nbox=  3

     End of Laue-RISM calculation


     convergence has been achieved in   176 iterations


     solvent charge    0.00526, renormalised to   -0.00000

     Total number of solvent (in expand-cell)
     H2O         1126.662623
     K+            20.395466
     OH-           20.395549

     Total charge of solvent (in expand-cell)
     H2O            0.005570 e
     K+            20.395466 e
     OH-          -20.395776 e
     Total          0.005261 e

     Chemical potential of solvation (in expand-cell)
     H2O        GaussFluct  -0.639184E+01 kcal/mol
     K+         GaussFluct  -0.967642E+00 kcal/mol
     OH-        GaussFluct  -0.948368E+00 kcal/mol
     Total      GaussFluct  -0.830785E+01 kcal/mol


     total cpu time spent up to now is     2065.1 secs

     total energy              =     -34.65788011 Ry
     estimated scf accuracy    <       0.00102186 Ry

     iteration #  5     ecut=    40.00 Ry     beta= 0.10
     Davidson diagonalization with overlap
     ethr =  1.28E-05,  avg # of iterations =  2.0

     negative rho (up, down):  9.782E-03 0.000E+00

     Laue-RISM Calculation

     convergence threshold    = 2.357E-06
     iter. #     1  RMS(g-h-1)= 1.305E-04  nbox=  0
     iter. #    11  RMS(g-h-1)= 1.575E-05  nbox= 10
     iter. #    21  RMS(g-h-1)= 5.606E-06  nbox= 20
     iter. #    31  RMS(g-h-1)= 3.946E-06  nbox= 20
     iter. #    41  RMS(g-h-1)= 3.340E-06  nbox= 20
     iter. #    51  RMS(g-h-1)= 3.029E-06  nbox=  4
     iter. #    61  RMS(g-h-1)= 2.658E-06  nbox= 14
     iter. #    71  RMS(g-h-1)= 2.346E-06  nbox= 20

     End of Laue-RISM calculation


     convergence has been achieved in    71 iterations


     solvent charge    0.00525, renormalised to   -0.00000

     Total number of solvent (in expand-cell)
     H2O         1126.667592
     K+            20.396344
     OH-           20.396129

     Total charge of solvent (in expand-cell)
     H2O            0.005527 e
     K+            20.396344 e
     OH-          -20.396619 e
     Total          0.005253 e

     Chemical potential of solvation (in expand-cell)
     H2O        GaussFluct  -0.645641E+01 kcal/mol
     K+         GaussFluct  -0.974738E+00 kcal/mol
     OH-        GaussFluct  -0.964125E+00 kcal/mol
     Total      GaussFluct  -0.839528E+01 kcal/mol


     total cpu time spent up to now is     2115.4 secs

     total energy              =     -34.65814418 Ry
     estimated scf accuracy    <       0.00084853 Ry

     iteration #  6     ecut=    40.00 Ry     beta= 0.10
     Davidson diagonalization with overlap
     ethr =  1.06E-05,  avg # of iterations =  1.0

     negative rho (up, down):  8.939E-03 0.000E+00

     Laue-RISM Calculation

     convergence threshold    = 2.039E-06
     iter. #     1  RMS(g-h-1)= 5.757E-05  nbox=  0
     iter. #    11  RMS(g-h-1)= 7.456E-06  nbox= 10
     iter. #    21  RMS(g-h-1)= 3.216E-06  nbox= 20
     iter. #    31  RMS(g-h-1)= 2.615E-06  nbox= 20
     iter. #    41  RMS(g-h-1)= 2.429E-06  nbox=  6
     iter. #    51  RMS(g-h-1)= 2.297E-06  nbox= 16
     iter. #    61  RMS(g-h-1)= 2.146E-06  nbox= 10
     iter. #    71  RMS(g-h-1)= 2.104E-06  nbox=  4
     iter. #    81  RMS(g-h-1)= 2.057E-06  nbox= 14
     iter. #    86  RMS(g-h-1)= 2.030E-06  nbox=  3

     End of Laue-RISM calculation


     convergence has been achieved in    86 iterations


     solvent charge    0.00573, renormalised to   -0.00000

     Total number of solvent (in expand-cell)
     H2O         1126.671277
     K+            20.396927
     OH-           20.396857

     Total charge of solvent (in expand-cell)
     H2O            0.005469 e
     K+            20.396927 e
     OH-          -20.396662 e
     Total          0.005733 e

     Chemical potential of solvation (in expand-cell)
     H2O        GaussFluct  -0.650576E+01 kcal/mol
     K+         GaussFluct  -0.980199E+00 kcal/mol
     OH-        GaussFluct  -0.972456E+00 kcal/mol
     Total      GaussFluct  -0.845842E+01 kcal/mol


     total cpu time spent up to now is     2170.6 secs

     total energy              =     -34.65811367 Ry
     estimated scf accuracy    <       0.00049558 Ry

     iteration #  7     ecut=    40.00 Ry     beta= 0.10
     Davidson diagonalization with overlap
     ethr =  6.19E-06,  avg # of iterations =  1.0

     negative rho (up, down):  9.065E-03 0.000E+00

     Laue-RISM Calculation

     convergence threshold    = 1.863E-06
     iter. #     1  RMS(g-h-1)= 3.734E-04  nbox=  0
     iter. #    11  RMS(g-h-1)= 4.708E-05  nbox= 10
     iter. #    21  RMS(g-h-1)= 1.469E-05  nbox= 20
     iter. #    31  RMS(g-h-1)= 8.725E-06  nbox= 20
     iter. #    41  RMS(g-h-1)= 6.914E-06  nbox= 20
     iter. #    51  RMS(g-h-1)= 5.028E-06  nbox= 20
     iter. #    61  RMS(g-h-1)= 4.220E-06  nbox= 20
     iter. #    71  RMS(g-h-1)= 3.494E-06  nbox= 20
     iter. #    81  RMS(g-h-1)= 3.091E-06  nbox= 20
     iter. #    91  RMS(g-h-1)= 2.906E-06  nbox=  3
     iter. #   101  RMS(g-h-1)= 2.456E-06  nbox= 13
     iter. #   111  RMS(g-h-1)= 2.026E-06  nbox=  7
     iter. #   121  RMS(g-h-1)= 1.916E-06  nbox= 17
     iter. #   131  RMS(g-h-1)= 1.879E-06  nbox= 11
     iter. #   139  RMS(g-h-1)= 1.858E-06  nbox=  3

     End of Laue-RISM calculation


     convergence has been achieved in   139 iterations


     solvent charge    0.00533, renormalised to   -0.00000

     Total number of solvent (in expand-cell)
     H2O         1126.687628
     K+            20.398925
     OH-           20.398879

     Total charge of solvent (in expand-cell)
     H2O            0.005275 e
     K+            20.398925 e
     OH-          -20.398869 e
     Total          0.005330 e

     Chemical potential of solvation (in expand-cell)
     H2O        GaussFluct  -0.670726E+01 kcal/mol
     K+         GaussFluct  -0.101487E+01 kcal/mol
     OH-        GaussFluct  -0.994657E+00 kcal/mol
     Total      GaussFluct  -0.871678E+01 kcal/mol


     total cpu time spent up to now is     2261.0 secs

     total energy              =     -34.65790917 Ry
     estimated scf accuracy    <       0.00035431 Ry

     iteration #  8     ecut=    40.00 Ry     beta= 0.10
     Davidson diagonalization with overlap
     ethr =  4.43E-06,  avg # of iterations =  2.0

     negative rho (up, down):  8.487E-03 0.000E+00

     Laue-RISM Calculation

     convergence threshold    = 1.236E-06
     iter. #     1  RMS(g-h-1)= 5.454E-05  nbox=  0
     iter. #    11  RMS(g-h-1)= 6.476E-06  nbox= 10
     iter. #    21  RMS(g-h-1)= 2.812E-06  nbox= 20
     iter. #    31  RMS(g-h-1)= 2.191E-06  nbox= 20
     iter. #    41  RMS(g-h-1)= 2.051E-06  nbox=  6
     iter. #    51  RMS(g-h-1)= 1.916E-06  nbox= 16
     iter. #    61  RMS(g-h-1)= 1.846E-06  nbox= 10
     iter. #    71  RMS(g-h-1)= 1.786E-06  nbox=  4
     iter. #    81  RMS(g-h-1)= 1.755E-06  nbox= 14
     iter. #    91  RMS(g-h-1)= 1.733E-06  nbox=  8
     iter. #   101  RMS(g-h-1)= 1.683E-06  nbox=  2
     iter. #   111  RMS(g-h-1)= 1.599E-06  nbox= 12
     iter. #   121  RMS(g-h-1)= 1.558E-06  nbox=  6
     iter. #   131  RMS(g-h-1)= 1.511E-06  nbox= 16
     iter. #   141  RMS(g-h-1)= 1.432E-06  nbox= 10
     iter. #   151  RMS(g-h-1)= 1.391E-06  nbox=  4
     iter. #   161  RMS(g-h-1)= 1.356E-06  nbox= 14
     iter. #   171  RMS(g-h-1)= 1.322E-06  nbox=  8
     iter. #   181  RMS(g-h-1)= 1.290E-06  nbox=  2
     iter. #   191  RMS(g-h-1)= 1.256E-06  nbox= 12
     iter. #   198  RMS(g-h-1)= 1.233E-06  nbox=  3

     End of Laue-RISM calculation


     convergence has been achieved in   198 iterations


     solvent charge    0.00529, renormalised to   -0.00000

     Total number of solvent (in expand-cell)
     H2O         1126.685515
     K+            20.398639
     OH-           20.398646

     Total charge of solvent (in expand-cell)
     H2O            0.005296 e
     K+            20.398639 e
     OH-          -20.398648 e
     Total          0.005287 e

     Chemical potential of solvation (in expand-cell)
     H2O        GaussFluct  -0.667881E+01 kcal/mol
     K+         GaussFluct  -0.101162E+01 kcal/mol
     OH-        GaussFluct  -0.988913E+00 kcal/mol
     Total      GaussFluct  -0.867934E+01 kcal/mol


     total cpu time spent up to now is     2381.4 secs

     total energy              =     -34.65804045 Ry
     estimated scf accuracy    <       0.00007721 Ry

     iteration #  9     ecut=    40.00 Ry     beta= 0.10
     Davidson diagonalization with overlap
     ethr =  9.65E-07,  avg # of iterations =  1.0

     negative rho (up, down):  7.960E-03 0.000E+00

     Laue-RISM Calculation

     convergence threshold    = 1.079E-06
     iter. #     1  RMS(g-h-1)= 7.747E-05  nbox=  0
     iter. #    11  RMS(g-h-1)= 1.017E-05  nbox= 10
     iter. #    21  RMS(g-h-1)= 3.785E-06  nbox= 20
     iter. #    31  RMS(g-h-1)= 2.418E-06  nbox= 20
     iter. #    41  RMS(g-h-1)= 2.164E-06  nbox= 20
     iter. #    51  RMS(g-h-1)= 1.758E-06  nbox=  8
     iter. #    61  RMS(g-h-1)= 1.546E-06  nbox=  2
     iter. #    71  RMS(g-h-1)= 1.321E-06  nbox= 12
     iter. #    81  RMS(g-h-1)= 1.230E-06  nbox=  6
     iter. #    91  RMS(g-h-1)= 1.190E-06  nbox= 16
     iter. #   101  RMS(g-h-1)= 1.178E-06  nbox= 10
     iter. #   111  RMS(g-h-1)= 1.170E-06  nbox=  4
     iter. #   121  RMS(g-h-1)= 1.160E-06  nbox= 14
     iter. #   131  RMS(g-h-1)= 1.147E-06  nbox=  8
     iter. #   141  RMS(g-h-1)= 1.106E-06  nbox=  2
     iter. #   149  RMS(g-h-1)= 1.078E-06  nbox= 10

     End of Laue-RISM calculation


     convergence has been achieved in   149 iterations


     solvent charge    0.00526, renormalised to    0.00000

     Total number of solvent (in expand-cell)
     H2O         1126.680419
     K+            20.398043
     OH-           20.398088

     Total charge of solvent (in expand-cell)
     H2O            0.005357 e
     K+            20.398043 e
     OH-          -20.398141 e
     Total          0.005259 e

     Chemical potential of solvation (in expand-cell)
     H2O        GaussFluct  -0.661573E+01 kcal/mol
     K+         GaussFluct  -0.100476E+01 kcal/mol
     OH-        GaussFluct  -0.975976E+00 kcal/mol
     Total      GaussFluct  -0.859647E+01 kcal/mol


     total cpu time spent up to now is     2475.9 secs

     total energy              =     -34.65802009 Ry
     estimated scf accuracy    <       0.00004664 Ry

     iteration # 10     ecut=    40.00 Ry     beta= 0.10
     Davidson diagonalization with overlap
     ethr =  5.83E-07,  avg # of iterations =  1.0

     negative rho (up, down):  7.569E-03 0.000E+00

     Laue-RISM Calculation

     convergence threshold    = 1.000E-06
     iter. #     1  RMS(g-h-1)= 4.635E-05  nbox=  0
     iter. #    11  RMS(g-h-1)= 6.228E-06  nbox= 10
     iter. #    21  RMS(g-h-1)= 2.321E-06  nbox= 20
     iter. #    31  RMS(g-h-1)= 1.567E-06  nbox= 20
     iter. #    41  RMS(g-h-1)= 1.265E-06  nbox= 20
     iter. #    51  RMS(g-h-1)= 1.224E-06  nbox= 20
     iter. #    61  RMS(g-h-1)= 1.143E-06  nbox=  7
     iter. #    71  RMS(g-h-1)= 1.054E-06  nbox= 17
     iter. #    81  RMS(g-h-1)= 1.033E-06  nbox= 11
     iter. #    91  RMS(g-h-1)= 1.022E-06  nbox=  5
     iter. #   101  RMS(g-h-1)= 1.021E-06  nbox= 15
     iter. #   111  RMS(g-h-1)= 1.017E-06  nbox=  9
     iter. #   121  RMS(g-h-1)= 1.011E-06  nbox=  3
     iter. #   131  RMS(g-h-1)= 1.002E-06  nbox= 13
     iter. #   132  RMS(g-h-1)= 1.000E-06  nbox= 14

     End of Laue-RISM calculation


     convergence has been achieved in   132 iterations


     solvent charge    0.00531, renormalised to    0.00000

     Total number of solvent (in expand-cell)
     H2O         1126.677088
     K+            20.397608
     OH-           20.397626

     Total charge of solvent (in expand-cell)
     H2O            0.005383 e
     K+            20.397608 e
     OH-          -20.397679 e
     Total          0.005311 e

     Chemical potential of solvation (in expand-cell)
     H2O        GaussFluct  -0.657188E+01 kcal/mol
     K+         GaussFluct  -0.100034E+01 kcal/mol
     OH-        GaussFluct  -0.966776E+00 kcal/mol
     Total      GaussFluct  -0.853900E+01 kcal/mol


     total cpu time spent up to now is     2559.8 secs

     total energy              =     -34.65801720 Ry
     estimated scf accuracy    <       0.00000641 Ry

     iteration # 11     ecut=    40.00 Ry     beta= 0.10
     Davidson diagonalization with overlap
     ethr =  8.01E-08,  avg # of iterations =  2.0

     negative rho (up, down):  7.230E-03 0.000E+00

     Laue-RISM Calculation

     convergence threshold    = 1.000E-06
     iter. #     1  RMS(g-h-1)= 1.070E-05  nbox=  0
     iter. #    11  RMS(g-h-1)= 1.803E-06  nbox= 10
     iter. #    21  RMS(g-h-1)= 1.085E-06  nbox= 20
     iter. #    31  RMS(g-h-1)= 1.022E-06  nbox= 20
     iter. #    41  RMS(g-h-1)= 1.005E-06  nbox=  8
     iter. #    44  RMS(g-h-1)= 9.997E-07  nbox= 11

     End of Laue-RISM calculation


     convergence has been achieved in    44 iterations


     solvent charge    0.00544, renormalised to    0.00000

     Total number of solvent (in expand-cell)
     H2O         1126.676184
     K+            20.397552
     OH-           20.397521

     Total charge of solvent (in expand-cell)
     H2O            0.005394 e
     K+            20.397552 e
     OH-          -20.397503 e
     Total          0.005443 e

     Chemical potential of solvation (in expand-cell)
     H2O        GaussFluct  -0.656006E+01 kcal/mol
     K+         GaussFluct  -0.999283E+00 kcal/mol
     OH-        GaussFluct  -0.963682E+00 kcal/mol
     Total      GaussFluct  -0.852303E+01 kcal/mol


     total cpu time spent up to now is     2590.3 secs

     total energy              =     -34.65801722 Ry
     estimated scf accuracy    <       0.00000031 Ry

     iteration # 12     ecut=    40.00 Ry     beta= 0.10
     Davidson diagonalization with overlap
     ethr =  3.92E-09,  avg # of iterations =  2.0

     negative rho (up, down):  6.960E-03 0.000E+00

     Laue-RISM Calculation

     convergence threshold    = 1.000E-06
     iter. #     1  RMS(g-h-1)= 5.555E-06  nbox=  0
     iter. #    11  RMS(g-h-1)= 1.249E-06  nbox= 10
     iter. #    21  RMS(g-h-1)= 1.026E-06  nbox= 20
     iter. #    31  RMS(g-h-1)= 1.000E-06  nbox=  8
     iter. #    32  RMS(g-h-1)= 9.986E-07  nbox=  9

     End of Laue-RISM calculation


     convergence has been achieved in    32 iterations


     solvent charge    0.00552, renormalised to    0.00000

     Total number of solvent (in expand-cell)
     H2O         1126.675903
     K+            20.397541
     OH-           20.397480

     Total charge of solvent (in expand-cell)
     H2O            0.005397 e
     K+            20.397541 e
     OH-          -20.397417 e
     Total          0.005521 e

     Chemical potential of solvation (in expand-cell)
     H2O        GaussFluct  -0.655612E+01 kcal/mol
     K+         GaussFluct  -0.999177E+00 kcal/mol
     OH-        GaussFluct  -0.962543E+00 kcal/mol
     Total      GaussFluct  -0.851784E+01 kcal/mol


     total cpu time spent up to now is     2613.3 secs

     total energy              =     -34.65801557 Ry
     estimated scf accuracy    <       0.00000078 Ry

     iteration # 13     ecut=    40.00 Ry     beta= 0.10
     Davidson diagonalization with overlap
     ethr =  3.92E-09,  avg # of iterations =  1.0

     negative rho (up, down):  6.755E-03 0.000E+00

     Laue-RISM Calculation

     convergence threshold    = 1.000E-06
     iter. #     1  RMS(g-h-1)= 1.783E-05  nbox=  0
     iter. #    11  RMS(g-h-1)= 2.395E-06  nbox= 10
     iter. #    21  RMS(g-h-1)= 1.166E-06  nbox= 20
     iter. #    31  RMS(g-h-1)= 1.040E-06  nbox= 20
     iter. #    41  RMS(g-h-1)= 1.014E-06  nbox=  6
     iter. #    49  RMS(g-h-1)= 9.960E-07  nbox= 14

     End of Laue-RISM calculation


     convergence has been achieved in    49 iterations


     solvent charge    0.00527, renormalised to    0.00000

     Total number of solvent (in expand-cell)
     H2O         1126.676922
     K+            20.397571
     OH-           20.397608

     Total charge of solvent (in expand-cell)
     H2O            0.005376 e
     K+            20.397571 e
     OH-          -20.397682 e
     Total          0.005265 e

     Chemical potential of solvation (in expand-cell)
     H2O        GaussFluct  -0.656904E+01 kcal/mol
     K+         GaussFluct  -0.100046E+01 kcal/mol
     OH-        GaussFluct  -0.965678E+00 kcal/mol
     Total      GaussFluct  -0.853518E+01 kcal/mol


     total cpu time spent up to now is     2647.0 secs

     total energy              =     -34.65801422 Ry
     estimated scf accuracy    <       0.00000137 Ry

     iteration # 14     ecut=    40.00 Ry     beta= 0.10
     Davidson diagonalization with overlap
     ethr =  3.92E-09,  avg # of iterations =  3.0

     negative rho (up, down):  6.598E-03 0.000E+00

     Laue-RISM Calculation

     convergence threshold    = 1.000E-06
     iter. #     1  RMS(g-h-1)= 1.184E-06  nbox=  0
     iter. #     8  RMS(g-h-1)= 9.987E-07  nbox=  7

     End of Laue-RISM calculation


     convergence has been achieved in     8 iterations


     solvent charge    0.00524, renormalised to    0.00000

     Total number of solvent (in expand-cell)
     H2O         1126.676936
     K+            20.397562
     OH-           20.397615

     Total charge of solvent (in expand-cell)
     H2O            0.005372 e
     K+            20.397562 e
     OH-          -20.397692 e
     Total          0.005242 e

     Chemical potential of solvation (in expand-cell)
     H2O        GaussFluct  -0.656912E+01 kcal/mol
     K+         GaussFluct  -0.100046E+01 kcal/mol
     OH-        GaussFluct  -0.965707E+00 kcal/mol
     Total      GaussFluct  -0.853529E+01 kcal/mol


     total cpu time spent up to now is     2655.4 secs

     total energy              =     -34.65801339 Ry
     estimated scf accuracy    <       0.00000001 Ry

     iteration # 15     ecut=    40.00 Ry     beta= 0.10
     Davidson diagonalization with overlap
     ethr =  1.44E-10,  avg # of iterations =  2.0

     negative rho (up, down):  6.481E-03 0.000E+00

     Laue-RISM Calculation

     convergence threshold    = 1.000E-06
     iter. #     1  RMS(g-h-1)= 1.128E-06  nbox=  0
     iter. #    11  RMS(g-h-1)= 9.963E-07  nbox= 10

     End of Laue-RISM calculation


     convergence has been achieved in    11 iterations


     solvent charge    0.00526, renormalised to    0.00000

     Total number of solvent (in expand-cell)
     H2O         1126.676965
     K+            20.397563
     OH-           20.397619

     Total charge of solvent (in expand-cell)
     H2O            0.005397 e
     K+            20.397563 e
     OH-          -20.397699 e
     Total          0.005260 e

     Chemical potential of solvation (in expand-cell)
     H2O        GaussFluct  -0.656939E+01 kcal/mol
     K+         GaussFluct  -0.100052E+01 kcal/mol
     OH-        GaussFluct  -0.965762E+00 kcal/mol
     Total      GaussFluct  -0.853567E+01 kcal/mol


     total cpu time spent up to now is     2665.6 secs

     total energy              =     -34.65801234 Ry
     estimated scf accuracy    <       0.00000002 Ry

     iteration # 16     ecut=    40.00 Ry     beta= 0.10
     Davidson diagonalization with overlap
     ethr =  1.44E-10,  avg # of iterations =  1.0

     negative rho (up, down):  6.399E-03 0.000E+00

     Laue-RISM Calculation

     convergence threshold    = 1.000E-06
     iter. #     1  RMS(g-h-1)= 1.070E-06  nbox=  0
     iter. #     4  RMS(g-h-1)= 9.967E-07  nbox=  3

     End of Laue-RISM calculation


     convergence has been achieved in     4 iterations


     solvent charge    0.00528, renormalised to    0.00000

     Total number of solvent (in expand-cell)
     H2O         1126.676949
     K+            20.397568
     OH-           20.397614

     Total charge of solvent (in expand-cell)
     H2O            0.005401 e
     K+            20.397568 e
     OH-          -20.397691 e
     Total          0.005278 e

     Chemical potential of solvation (in expand-cell)
     H2O        GaussFluct  -0.656919E+01 kcal/mol
     K+         GaussFluct  -0.100045E+01 kcal/mol
     OH-        GaussFluct  -0.965640E+00 kcal/mol
     Total      GaussFluct  -0.853528E+01 kcal/mol


     total cpu time spent up to now is     2671.7 secs

     total energy              =     -34.65801164 Ry
     estimated scf accuracy    <       0.00000004 Ry

     iteration # 17     ecut=    40.00 Ry     beta= 0.10
     Davidson diagonalization with overlap
     ethr =  1.44E-10,  avg # of iterations =  1.0

     negative rho (up, down):  6.342E-03 0.000E+00

     Laue-RISM Calculation

     convergence threshold    = 1.000E-06
     iter. #     1  RMS(g-h-1)= 2.605E-06  nbox=  0
     iter. #    11  RMS(g-h-1)= 1.021E-06  nbox= 10
     iter. #    15  RMS(g-h-1)= 9.937E-07  nbox= 14

     End of Laue-RISM calculation


     convergence has been achieved in    15 iterations


     solvent charge    0.00535, renormalised to    0.00000

     Total number of solvent (in expand-cell)
     H2O         1126.676781
     K+            20.397606
     OH-           20.397572

     Total charge of solvent (in expand-cell)
     H2O            0.005370 e
     K+            20.397606 e
     OH-          -20.397627 e
     Total          0.005350 e

     Chemical potential of solvation (in expand-cell)
     H2O        GaussFluct  -0.656792E+01 kcal/mol
     K+         GaussFluct  -0.100028E+01 kcal/mol
     OH-        GaussFluct  -0.965071E+00 kcal/mol
     Total      GaussFluct  -0.853327E+01 kcal/mol


     total cpu time spent up to now is     2684.3 secs

     total energy              =     -34.65801098 Ry
     estimated scf accuracy    <       0.00000003 Ry

     iteration # 18     ecut=    40.00 Ry     beta= 0.10
     Davidson diagonalization with overlap
     ethr =  1.44E-10,  avg # of iterations =  2.0

     negative rho (up, down):  6.604E-03 0.000E+00

     Laue-RISM Calculation

     convergence threshold    = 1.000E-06
     iter. #     1  RMS(g-h-1)= 1.302E-06  nbox=  0
     iter. #     9  RMS(g-h-1)= 9.981E-07  nbox=  8

     End of Laue-RISM calculation


     convergence has been achieved in     9 iterations


     solvent charge    0.00542, renormalised to   -0.00000

     Total number of solvent (in expand-cell)
     H2O         1126.676740
     K+            20.397630
     OH-           20.397559

     Total charge of solvent (in expand-cell)
     H2O            0.005392 e
     K+            20.397630 e
     OH-          -20.397603 e
     Total          0.005419 e

     Chemical potential of solvation (in expand-cell)
     H2O        GaussFluct  -0.656769E+01 kcal/mol
     K+         GaussFluct  -0.100029E+01 kcal/mol
     OH-        GaussFluct  -0.964929E+00 kcal/mol
     Total      GaussFluct  -0.853292E+01 kcal/mol


     total cpu time spent up to now is     2693.2 secs

     End of self-consistent calculation

          k = 0.0000 0.0000 0.0000 (115195 PWs)   bands (ev):

   -25.8904 -11.9142 -10.5352  -7.5094  -0.6875  -0.1842   0.0944   0.0994

     the Fermi energy is    -5.7178 ev

!    total energy              =     -34.65800885 Ry
     estimated scf accuracy    <          4.0E-10 Ry
     smearing contrib. (-TS)   =      -0.00000000 Ry
     internal energy E=F+TS    =     -34.65800885 Ry

     The total energy is F=E-TS. E is the sum of the following terms:
     one-electron contribution =     -69.87805317 Ry
     hartree contribution      =      36.39540051 Ry
     xc contribution           =      -8.73838214 Ry
     ewald contribution        =       7.59024029 Ry
     solvation energy (RISM)   =      -0.02721434 Ry

     convergence has been achieved in  18 iterations

     negative rho (up, down):  6.604E-03 0.000E+00

     Forces acting on atoms (cartesian axes, Ry/au):

     atom    1 type  1   force =    -0.04112143   -0.04112173    0.00000571
     atom    2 type  2   force =     0.02055831    0.02055846    0.12410483
     atom    3 type  2   force =     0.02056312    0.02056328   -0.12411063

     Total force =     0.189416     Total SCF correction =     0.000028
     Energy error            =      2.5E-02 Ry
     Gradient error          =      1.2E-01 Ry/Bohr

     number of scf cycles    =   2
     number of bfgs steps    =   1

     energy             old  =     -34.6327482145 Ry
     energy             new  =     -34.6580088499 Ry

     CASE: energy            _new < energy            _old

     new trust radius        =       0.1600362477 bohr
     new conv_thr            =       0.0000000100 Ry


ATOMIC_POSITIONS (angstrom)
O                0.0861092467        0.0861028705       -0.0000015701
H                0.5569442145        0.5569473596        0.7114057620
H                0.5569465389        0.5569497699       -0.7114088281



     Writing config-only to output data dir ./output/opt.save/ :
     XML data file
     NEW-OLD atomic charge density approx. for the potential

     negative rho (up, down):  6.465E-03 0.000E+00

     Laue-RISM Calculation

     convergence threshold    = 6.310E-06
     iter. #     1  RMS(g-h-1)= 3.362E-02  nbox=  0
     iter. #    11  RMS(g-h-1)= 1.734E-03  nbox= 10
     iter. #    21  RMS(g-h-1)= 8.809E-04  nbox= 20
     iter. #    31  RMS(g-h-1)= 3.589E-04  nbox= 20
     iter. #    41  RMS(g-h-1)= 2.445E-04  nbox= 20
     iter. #    51  RMS(g-h-1)= 1.290E-04  nbox= 20
     iter. #    61  RMS(g-h-1)= 1.126E-04  nbox= 20
     iter. #    71  RMS(g-h-1)= 9.102E-05  nbox= 20
[...]
     negative rho (up, down):  6.497E-03 0.000E+00

     Laue-RISM Calculation

     convergence threshold    = 1.000E-06
     iter. #     1  RMS(g-h-1)= 3.521E-05  nbox=  0
     iter. #    11  RMS(g-h-1)= 3.894E-06  nbox= 10
     iter. #    21  RMS(g-h-1)= 1.354E-06  nbox= 20
     iter. #    31  RMS(g-h-1)= 1.067E-06  nbox= 20
     iter. #    41  RMS(g-h-1)= 1.003E-06  nbox= 20
     iter. #    42  RMS(g-h-1)= 9.832E-07  nbox= 20

     End of Laue-RISM calculation


     convergence has been achieved in    42 iterations


     solvent charge   -0.00547, renormalised to    0.00000

     Total number of solvent (in expand-cell)
     H2O         1126.702550
     K+            20.395426
     OH-           20.395363

     Total charge of solvent (in expand-cell)
     H2O           -0.005594 e
     K+            20.395426 e
     OH-          -20.395303 e
     Total         -0.005471 e

     Chemical potential of solvation (in expand-cell)
     H2O        GaussFluct  -0.645735E+01 kcal/mol
     K+         GaussFluct  -0.126340E+01 kcal/mol
     OH-        GaussFluct  -0.448234E+00 kcal/mol
     Total      GaussFluct  -0.816898E+01 kcal/mol


     total cpu time spent up to now is     4377.3 secs

     total energy              =     -34.68691105 Ry
     estimated scf accuracy    <       0.00000273 Ry

     iteration #  3     ecut=    40.00 Ry     beta= 0.10
     Davidson diagonalization with overlap
     ethr =  3.42E-08,  avg # of iterations =  2.0

     negative rho (up, down):  6.496E-03 0.000E+00

     Laue-RISM Calculation

     convergence threshold    = 1.000E-06
     iter. #     1  RMS(g-h-1)= 3.104E-06  nbox=  0
     iter. #    11  RMS(g-h-1)= 1.019E-06  nbox= 10
     iter. #    14  RMS(g-h-1)= 9.942E-07  nbox= 13

     End of Laue-RISM calculation


     convergence has been achieved in    14 iterations


     solvent charge   -0.00545, renormalised to    0.00000

     Total number of solvent (in expand-cell)
     H2O         1126.702396
     K+            20.395437
     OH-           20.395344

     Total charge of solvent (in expand-cell)
     H2O           -0.005616 e
     K+            20.395437 e
     OH-          -20.395275 e
     Total         -0.005453 e

     Chemical potential of solvation (in expand-cell)
     H2O        GaussFluct  -0.645637E+01 kcal/mol
     K+         GaussFluct  -0.126333E+01 kcal/mol
     OH-        GaussFluct  -0.448501E+00 kcal/mol
     Total      GaussFluct  -0.816820E+01 kcal/mol


     total cpu time spent up to now is     4391.8 secs

     total energy              =     -34.68691133 Ry
     estimated scf accuracy    <       0.00000058 Ry

     iteration #  4     ecut=    40.00 Ry     beta= 0.10
     Davidson diagonalization with overlap
     ethr =  7.27E-09,  avg # of iterations =  1.0

     negative rho (up, down):  6.496E-03 0.000E+00

     Laue-RISM Calculation

     convergence threshold    = 1.000E-06
     iter. #     1  RMS(g-h-1)= 1.946E-05  nbox=  0
     iter. #    11  RMS(g-h-1)= 2.451E-06  nbox= 10
     iter. #    21  RMS(g-h-1)= 1.180E-06  nbox= 20
     iter. #    31  RMS(g-h-1)= 1.027E-06  nbox= 20
     iter. #    38  RMS(g-h-1)= 9.954E-07  nbox=  3

     End of Laue-RISM calculation


     convergence has been achieved in    38 iterations


     solvent charge   -0.00533, renormalised to    0.00000

     Total number of solvent (in expand-cell)
     H2O         1126.701602
     K+            20.395402
     OH-           20.395243

     Total charge of solvent (in expand-cell)
     H2O           -0.005616 e
     K+            20.395402 e
     OH-          -20.395117 e
     Total         -0.005331 e

     Chemical potential of solvation (in expand-cell)
     H2O        GaussFluct  -0.644966E+01 kcal/mol
     K+         GaussFluct  -0.126154E+01 kcal/mol
     OH-        GaussFluct  -0.449385E+00 kcal/mol
     Total      GaussFluct  -0.816058E+01 kcal/mol


     total cpu time spent up to now is     4419.3 secs

     total energy              =     -34.68690997 Ry
     estimated scf accuracy    <       0.00000049 Ry

     iteration #  5     ecut=    40.00 Ry     beta= 0.10
     Davidson diagonalization with overlap
     ethr =  6.10E-09,  avg # of iterations =  2.0

     negative rho (up, down):  6.496E-03 0.000E+00

     Laue-RISM Calculation

     convergence threshold    = 1.000E-06
     iter. #     1  RMS(g-h-1)= 9.431E-06  nbox=  0
     iter. #    11  RMS(g-h-1)= 1.420E-06  nbox= 10
     iter. #    21  RMS(g-h-1)= 1.019E-06  nbox= 20
     iter. #    24  RMS(g-h-1)= 9.957E-07  nbox= 20

     End of Laue-RISM calculation


     convergence has been achieved in    24 iterations


     solvent charge   -0.00537, renormalised to    0.00000

     Total number of solvent (in expand-cell)
     H2O         1126.701275
     K+            20.395355
     OH-           20.395224

     Total charge of solvent (in expand-cell)
     H2O           -0.005626 e
     K+            20.395355 e
     OH-          -20.395097 e
     Total         -0.005369 e

     Chemical potential of solvation (in expand-cell)
     H2O        GaussFluct  -0.644736E+01 kcal/mol
     K+         GaussFluct  -0.126082E+01 kcal/mol
     OH-        GaussFluct  -0.450254E+00 kcal/mol
     Total      GaussFluct  -0.815844E+01 kcal/mol


     total cpu time spent up to now is     4437.7 secs

     total energy              =     -34.68690941 Ry
     estimated scf accuracy    <       0.00000006 Ry

     iteration #  6     ecut=    40.00 Ry     beta= 0.10
     Davidson diagonalization with overlap
     ethr =  7.53E-10,  avg # of iterations =  2.0

     negative rho (up, down):  6.496E-03 0.000E+00

     Laue-RISM Calculation

     convergence threshold    = 1.000E-06
     iter. #     1  RMS(g-h-1)= 3.837E-06  nbox=  0
     iter. #    11  RMS(g-h-1)= 1.039E-06  nbox= 10
     iter. #    15  RMS(g-h-1)= 9.842E-07  nbox= 14

     End of Laue-RISM calculation


     convergence has been achieved in    15 iterations


     solvent charge   -0.00553, renormalised to   -0.00000

     Total number of solvent (in expand-cell)
     H2O         1126.701342
     K+            20.395289
     OH-           20.395289

     Total charge of solvent (in expand-cell)
     H2O           -0.005618 e
     K+            20.395289 e
     OH-          -20.395203 e
     Total         -0.005531 e

     Chemical potential of solvation (in expand-cell)
     H2O        GaussFluct  -0.644806E+01 kcal/mol
     K+         GaussFluct  -0.126065E+01 kcal/mol
     OH-        GaussFluct  -0.450719E+00 kcal/mol
     Total      GaussFluct  -0.815944E+01 kcal/mol


     total cpu time spent up to now is     4450.3 secs

     total energy              =     -34.68690942 Ry
     estimated scf accuracy    <       0.00000001 Ry

     iteration #  7     ecut=    40.00 Ry     beta= 0.10
     Davidson diagonalization with overlap
     ethr =  1.53E-10,  avg # of iterations =  3.0

     negative rho (up, down):  6.496E-03 0.000E+00

     Laue-RISM Calculation

     convergence threshold    = 1.000E-06
     iter. #     1  RMS(g-h-1)= 4.217E-06  nbox=  0
     iter. #    11  RMS(g-h-1)= 1.021E-06  nbox= 10
     iter. #    14  RMS(g-h-1)= 9.959E-07  nbox= 13

     End of Laue-RISM calculation


     convergence has been achieved in    14 iterations


     solvent charge   -0.00544, renormalised to   -0.00000

     Total number of solvent (in expand-cell)
     H2O         1126.701001
     K+            20.395331
     OH-           20.395234

     Total charge of solvent (in expand-cell)
     H2O           -0.005647 e
     K+            20.395331 e
     OH-          -20.395125 e
     Total         -0.005441 e

     Chemical potential of solvation (in expand-cell)
     H2O        GaussFluct  -0.644585E+01 kcal/mol
     K+         GaussFluct  -0.126028E+01 kcal/mol
     OH-        GaussFluct  -0.450391E+00 kcal/mol
     Total      GaussFluct  -0.815652E+01 kcal/mol


     total cpu time spent up to now is     4462.1 secs

     total energy              =     -34.68690931 Ry
     estimated scf accuracy    <       0.00000006 Ry

     iteration #  8     ecut=    40.00 Ry     beta= 0.10
     Davidson diagonalization with overlap
     ethr =  1.53E-10,  avg # of iterations =  3.0

     negative rho (up, down):  6.496E-03 0.000E+00

     Laue-RISM Calculation

     convergence threshold    = 1.000E-06
     iter. #     1  RMS(g-h-1)= 1.192E-06  nbox=  0
     iter. #     4  RMS(g-h-1)= 9.987E-07  nbox=  3

     End of Laue-RISM calculation


     convergence has been achieved in     4 iterations


     solvent charge   -0.00550, renormalised to    0.00000

     Total number of solvent (in expand-cell)
     H2O         1126.700997
     K+            20.395317
     OH-           20.395245

     Total charge of solvent (in expand-cell)
     H2O           -0.005674 e
     K+            20.395317 e
     OH-          -20.395140 e
     Total         -0.005498 e

     Chemical potential of solvation (in expand-cell)
     H2O        GaussFluct  -0.644585E+01 kcal/mol
     K+         GaussFluct  -0.126025E+01 kcal/mol
     OH-        GaussFluct  -0.450434E+00 kcal/mol
     Total      GaussFluct  -0.815654E+01 kcal/mol


     total cpu time spent up to now is     4468.3 secs

     End of self-consistent calculation

          k = 0.0000 0.0000 0.0000 (115195 PWs)   bands (ev):

   -25.0443 -12.7398  -9.4415  -7.3536  -0.7371  -0.1834   0.0993   0.0999

     the Fermi energy is    -5.5059 ev

!    total energy              =     -34.68690926 Ry
     estimated scf accuracy    <          3.4E-10 Ry
     smearing contrib. (-TS)   =      -0.00000000 Ry
     internal energy E=F+TS    =     -34.68690926 Ry

     The total energy is F=E-TS. E is the sum of the following terms:
     one-electron contribution =     -68.92400278 Ry
     hartree contribution      =      35.97534412 Ry
     xc contribution           =      -8.67109841 Ry
     ewald contribution        =       6.95886175 Ry
     solvation energy (RISM)   =      -0.02601394 Ry

     convergence has been achieved in   8 iterations

     negative rho (up, down):  6.496E-03 0.000E+00

     Forces acting on atoms (cartesian axes, Ry/au):

     atom    1 type  1   force =     0.00011876    0.00011880   -0.00001276
     atom    2 type  2   force =    -0.00005585   -0.00005588   -0.00004420
     atom    3 type  2   force =    -0.00006291   -0.00006293    0.00005670

     Total force =     0.000218     Total SCF correction =     0.000017
     Energy error            =      1.2E-05 Ry
     Gradient error          =      1.2E-04 Ry/Bohr

     number of scf cycles    =   5
     number of bfgs steps    =   4

     energy             old  =     -34.6868970911 Ry
     energy             new  =     -34.6869092567 Ry

     CASE: energy            _new < energy            _old

     new trust radius        =       0.0001328759 bohr
     new conv_thr            =       0.0000000100 Ry


ATOMIC_POSITIONS (angstrom)
O                0.1114735092        0.1114657415       -0.0000066402
H                0.5442631536        0.5442669821        0.7727432379
H                0.5442633372        0.5442672764       -0.7727427568



     Writing config-only to output data dir ./output/opt.save/ :
     XML data file
     NEW-OLD atomic charge density approx. for the potential

     negative rho (up, down):  6.496E-03 0.000E+00

     Laue-RISM Calculation

     convergence threshold    = 6.310E-06
     iter. #     1  RMS(g-h-1)= 7.078E-05  nbox=  0
     iter. #     5  RMS(g-h-1)= 4.868E-06  nbox=  4

     End of Laue-RISM calculation


     convergence has been achieved in     5 iterations


     solvent charge   -0.00549, renormalised to   -0.00000

     Total number of solvent (in expand-cell)
     H2O         1126.700318
     K+            20.395323
     OH-           20.395301

     Total charge of solvent (in expand-cell)
     H2O           -0.005625 e
     K+            20.395323 e
     OH-          -20.395190 e
     Total         -0.005492 e

     Chemical potential of solvation (in expand-cell)
     H2O        GaussFluct  -0.644335E+01 kcal/mol
     K+         GaussFluct  -0.126076E+01 kcal/mol
     OH-        GaussFluct  -0.452032E+00 kcal/mol
     Total      GaussFluct  -0.815614E+01 kcal/mol


     total cpu time spent up to now is     4476.0 secs

     Self-consistent Calculation

     iteration #  1     ecut=    40.00 Ry     beta= 0.10
     Davidson diagonalization with overlap
     ethr =  1.00E-06,  avg # of iterations =  2.0

     Threshold (ethr) on eigenvalues was too large:
     Diagonalizing with lowered threshold

     Davidson diagonalization with overlap
     ethr =  1.08E-10,  avg # of iterations =  2.0

     negative rho (up, down):  6.496E-03 0.000E+00

     Laue-RISM Calculation

     convergence threshold    = 1.000E-06
     iter. #     1  RMS(g-h-1)= 4.786E-06  nbox=  0
     iter. #    11  RMS(g-h-1)= 2.082E-06  nbox= 10
     iter. #    21  RMS(g-h-1)= 1.107E-06  nbox= 20
     iter. #    26  RMS(g-h-1)= 9.849E-07  nbox= 20

     End of Laue-RISM calculation


     convergence has been achieved in    26 iterations


     solvent charge   -0.00551, renormalised to   -0.00000

     Total number of solvent (in expand-cell)
     H2O         1126.700994
     K+            20.395284
     OH-           20.395222

     Total charge of solvent (in expand-cell)
     H2O           -0.005649 e
     K+            20.395284 e
     OH-          -20.395148 e
     Total         -0.005513 e

     Chemical potential of solvation (in expand-cell)
     H2O        GaussFluct  -0.644500E+01 kcal/mol
     K+         GaussFluct  -0.126011E+01 kcal/mol
     OH-        GaussFluct  -0.450588E+00 kcal/mol
     Total      GaussFluct  -0.815569E+01 kcal/mol


     total cpu time spent up to now is     4496.1 secs

     total energy              =     -34.68690885 Ry
     estimated scf accuracy    <       0.00000001 Ry

     iteration #  2     ecut=    40.00 Ry     beta= 0.10
     Davidson diagonalization with overlap
     ethr =  1.45E-10,  avg # of iterations =  2.0

     negative rho (up, down):  6.497E-03 0.000E+00

     Laue-RISM Calculation

     convergence threshold    = 1.000E-06
     iter. #     1  RMS(g-h-1)= 1.866E-06  nbox=  0
     iter. #     7  RMS(g-h-1)= 9.960E-07  nbox=  6

     End of Laue-RISM calculation


     convergence has been achieved in     7 iterations


     solvent charge   -0.00556, renormalised to    0.00000

     Total number of solvent (in expand-cell)
     H2O         1126.700991
     K+            20.395262
     OH-           20.395232

     Total charge of solvent (in expand-cell)
     H2O           -0.005657 e
     K+            20.395262 e
     OH-          -20.395165 e
     Total         -0.005560 e

     Chemical potential of solvation (in expand-cell)
     H2O        GaussFluct  -0.644484E+01 kcal/mol
     K+         GaussFluct  -0.125987E+01 kcal/mol
     OH-        GaussFluct  -0.450306E+00 kcal/mol
     Total      GaussFluct  -0.815502E+01 kcal/mol


     total cpu time spent up to now is     4503.9 secs

     End of self-consistent calculation

          k = 0.0000 0.0000 0.0000 (115195 PWs)   bands (ev):

   -25.0442 -12.7404  -9.4407  -7.3533  -0.7367  -0.1834   0.0993   0.0999

     the Fermi energy is    -5.5058 ev

!    total energy              =     -34.68690893 Ry
     estimated scf accuracy    <          2.2E-09 Ry
     smearing contrib. (-TS)   =      -0.00000000 Ry
     internal energy E=F+TS    =     -34.68690893 Ry

     The total energy is F=E-TS. E is the sum of the following terms:
     one-electron contribution =     -68.92487176 Ry
     hartree contribution      =      35.97579210 Ry
     xc contribution           =      -8.67117698 Ry
     ewald contribution        =       6.95935682 Ry
     solvation energy (RISM)   =      -0.02600910 Ry

     convergence has been achieved in   2 iterations

     negative rho (up, down):  6.497E-03 0.000E+00

     Forces acting on atoms (cartesian axes, Ry/au):

     atom    1 type  1   force =     0.00002534    0.00002534    0.00002024
     atom    2 type  2   force =    -0.00001725   -0.00001724   -0.00002692
     atom    3 type  2   force =    -0.00000809   -0.00000809    0.00001131

     Total force =     0.000057     Total SCF correction =     0.000116
     SCF correction compared to forces is large: reduce conv_thr to get better values
     Energy error            =      3.3E-07 Ry
     Gradient error          =      2.7E-05 Ry/Bohr

     bfgs converged in   6 scf cycles and   5 bfgs steps
     (criteria: energy <  1.0E-05 Ry, force <  1.0E-04 Ry/Bohr)

     End of BFGS Geometry Optimization

     Final energy             =     -34.6869089272 Ry

     File ./output/opt.bfgs deleted, as requested
Begin final coordinates

ATOMIC_POSITIONS (angstrom)
O                0.1114735092        0.1114657415       -0.0000066402
H                0.5442631536        0.5442669821        0.7727432379
H                0.5442633372        0.5442672764       -0.7727427568
End final coordinates



     Writing all to output data dir ./output/opt.save/ :
     XML data file, charge density, RISM restart, pseudopotentials, RISM molfiles, collected wavefunctions
 
     init_run     :    158.49s CPU    161.31s WALL (       1 calls)
     electrons    :   3690.33s CPU   3769.05s WALL (       6 calls)
     update_pot   :      1.11s CPU      1.22s WALL (       5 calls)
     forces       :      3.12s CPU      3.50s WALL (       6 calls)

     Called by init_run:
     wfcinit      :      0.02s CPU      0.03s WALL (       1 calls)
     potinit      :    156.75s CPU    159.45s WALL (       1 calls)
     hinit0       :      0.18s CPU      0.22s WALL (       1 calls)

     Called by electrons:
     c_bands      :      4.10s CPU      4.23s WALL (      67 calls)
     sum_band     :      7.64s CPU     11.12s WALL (      67 calls)
     v_of_rho     :     11.77s CPU     12.68s WALL (      71 calls)
     newd         :      8.34s CPU     11.25s WALL (      71 calls)
     mix_rho      :      2.23s CPU      2.43s WALL (      67 calls)

     Called by c_bands:
     init_us_2    :      0.07s CPU      0.07s WALL (     135 calls)
     regterg      :      3.98s CPU      4.02s WALL (      67 calls)

     Called by *egterg:
     rdiaghg      :      0.02s CPU      0.02s WALL (     246 calls)
     h_psi        :      3.67s CPU      3.71s WALL (     254 calls)
     s_psi        :      0.03s CPU      0.03s WALL (     254 calls)
     g_psi        :      0.01s CPU      0.01s WALL (     186 calls)

     Called by h_psi:
     h_psi:calbec :      0.10s CPU      0.10s WALL (     254 calls)
     vloc_psi     :      3.50s CPU      3.54s WALL (     254 calls)
     add_vuspsi   :      0.05s CPU      0.05s WALL (     254 calls)

     General routines
     calbec       :      0.13s CPU      0.13s WALL (     345 calls)
     fft          :     12.96s CPU     15.01s WALL (    1049 calls)
     ffts         :      0.72s CPU      0.88s WALL (     138 calls)
     fftw         :      3.13s CPU      3.16s WALL (    1774 calls)
     interpolate  :      1.39s CPU      1.57s WALL (      71 calls)
 
     Parallel routines
     fft_scatt_xy :     34.57s CPU     35.39s WALL (   80080 calls)
     fft_scatt_yz :    316.59s CPU    380.71s WALL (   80080 calls)

     RISM routines
     1DRISM_pre   :      0.00s CPU      0.00s WALL (       1 calls)
     1DRISM_run   :     94.62s CPU    113.09s WALL (       1 calls)
     3DRISM_pre   :      6.71s CPU      6.81s WALL (       1 calls)
     3DRISM_run   :   4247.75s CPU   4327.65s WALL (      71 calls)
     3DRISM_ions  :      0.27s CPU      0.27s WALL (       5 calls)
     3DRISM_for   :      0.51s CPU      0.51s WALL (       6 calls)
     3DRISM_vsol  :      0.91s CPU      1.03s WALL (      71 calls)
 
     PWSCF        :      1h13m CPU      1h15m WALL

 
   This run was terminated on:  13:38:43  29May2024            

=------------------------------------------------------------------------------=
   JOB DONE.
=------------------------------------------------------------------------------=
