
     Program POST-PROC v.7.2 starts on  4Jun2024 at 13:37:23 

     This program is part of the open-source Quantum ESPRESSO suite
     for quantum simulation of materials; please cite
         "P. Giannozzi et al., J. Phys.:Condens. Matter 21 395502 (2009);
         "P. Giannozzi et al., J. Phys.:Condens. Matter 29 465901 (2017);
         "P. Giannozzi et al., J. Chem. Phys. 152 154105 (2020);
          URL http://www.quantum-espresso.org", 
     in publications or presentations arising from this work. More details at
     http://www.quantum-espresso.org/quote

     Parallel version (MPI), running on    16 processors

     MPI processes distributed on     1 nodes
     R & G space division:  proc/nbgrp/npool/nimage =      16
     182096 MiB available memory on the printing compute node when the environment starts
 

     Reading xml data from directory:

     output/opt.save/
     file O.pbe-n-kjpaw_psl.1.0.0.UPF: wavefunction(s)  2S 2P renormalized
     file H.pbe-kjpaw_psl.1.0.0.UPF: wavefunction(s)  1S renormalized

     IMPORTANT: XC functional enforced from input :
     Exchange-correlation= PBE
                           (   1   4   3   4   0   0   0)
     Any further DFT definition will be discarded
     Please, verify this is what you really want

 
     Parallelization info
     --------------------
     sticks:   dense  smooth     PW     G-vecs:    dense   smooth      PW
     Min         852     283     70                74904    14397    1790
     Max         853     284     71                74907    14400    1793
     Sum       13637    4537   1129              1198487   230389   28671
 
     Using Slab Decomposition
 

     negative rho (up, down):  1.051E-03 0.000E+00

     Calling punch_plot, plot_num =  21
       Reconstructing all-electron valence charge.
     Writing data to file  optcharge
     Reading data from file  optcharge

     Writing data to be plotted to file distribution_ae.cube
     Plot Type: 3D                     Output format: Gaussian cube
 
     POST-PROC    :      2.01s CPU      2.58s WALL

 
   This run was terminated on:  13:37:26   4Jun2024            

=------------------------------------------------------------------------------=
   JOB DONE.
=------------------------------------------------------------------------------=
