
     Program PWSCF v.7.3.1 starts on  9Jun2024 at  3: 4:32 

     This program is part of the open-source Quantum ESPRESSO suite
     for quantum simulation of materials; please cite
         "P. Giannozzi et al., J. Phys.:Condens. Matter 21 395502 (2009);
         "P. Giannozzi et al., J. Phys.:Condens. Matter 29 465901 (2017);
         "P. Giannozzi et al., J. Chem. Phys. 152 154105 (2020);
          URL http://www.quantum-espresso.org", 
     in publications or presentations arising from this work. More details at
     http://www.quantum-espresso.org/quote

     Parallel version (MPI), running on    32 processors

     MPI processes distributed on     1 nodes
     186576 MiB available memory on the printing compute node when the environment starts
 
     Reading input from espresso.pwi

     Current dimensions of program PWSCF are:
     Max number of different atomic species (ntypx) = 10
     Max number of k-points (npk) =  40000
     Max angular momentum in pseudopotentials (lmaxx) =  4
     Message from routine iosys_1drism:
     default density from MOL file(H2O.tip5p.Nishihara.MOL) is used

     gamma-point specific algorithms are used
 
     R & G space division:  proc/nbgrp/npool/nimage =      32
     Subspace diagonalization in iterative solution of the eigenvalue problem:
     a serial algorithm will be used


     Molecule # 1 for H2O read from file:
     /beegfs/hotpool/mano/rism/RISM_example/pseudo/H2O.tip5p.Nishihara.MOL
     Density:
         0.26741624E+03 cell^-1
         0.49533751E-02 bohr^-3
         0.55506881E+02 mol/L
         0.99997200E+00 g/cm^3
     Permittivity:
        78.500000
     Number of atoms:   5
     Atoms:
       #  atom      X (angs)      Y (angs)      Z (angs)      Q (e)         E (kcal/mol)  S (angs)
       1  O/h2o     0.00000000   -0.06556000    0.00000000    0.00000000    0.16000000    3.12000000
       2  H/h2o     0.75695000    0.52032000    0.00000000    0.24100000    0.04600000    1.00000000
       3  H/h2o    -0.75695000    0.52032000    0.00000000    0.24100000    0.04600000    1.00000000
       4  L/h2o     0.00000000   -0.46971000    0.57154000   -0.24100000    0.04600000    1.80000000
       5  L/h2o     0.00000000   -0.46971000   -0.57154000   -0.24100000    0.04600000    1.80000000


     Molecule # 2 for K+ read from file:
     /beegfs/hotpool/mano/rism/RISM_example/pseudo/K+.Hagiwara.MOL
     Density:
         0.48177133E+01 cell^-1
         0.89238937E-04 bohr^-3
         0.10000000E+01 mol/L
         0.39098300E-01 g/cm^3
     Number of atoms:   1
     Atoms:
       #  atom      X (angs)      Y (angs)      Z (angs)      Q (e)         E (kcal/mol)  S (angs)
       1  K         0.00000000    0.00000000    0.00000000    1.00000000    0.00032800    4.93462800


     Molecule # 3 for OH- read from file:
     /beegfs/hotpool/mano/rism/RISM_example/pseudo/OH-.oplsaa.MOL
     Density:
         0.48177133E+01 cell^-1
         0.89238937E-04 bohr^-3
         0.10000000E+01 mol/L
         0.17007340E-01 g/cm^3
     Number of atoms:   2
     Atoms:
       #  atom      X (angs)      Y (angs)      Z (angs)      Q (e)         E (kcal/mol)  S (angs)
       1  O/oh      0.00000000    0.00000000    0.00000000   -1.30000000    0.25000000    3.20000000
       2  H/oh      0.95300000    0.00000000    0.00000000    0.30000000    0.04600000    1.00000000


     1D-RISM info
     ------------
     closure equation        =           KH
     temperature             =     300.0000  kelvin
     coulomb smearing radius =       2.0000  bohr
     number of solvent sites =            8
     number of grids         =         5973
     maximum of R-space      =     999.8326  bohr
     maximum of G-space      =      18.7632  bohr^-1
     number of iterations    =        15000
     convergence threshold   =      1.0E-08
     Gaussian width of bonds =       0.3162  bohr
     size of MDIIS           =           20
     step of MDIIS           =       0.2000
     number of processes     =           32


     1D-RISM Calculation

     iter. #     1  RMS(g-h-1)= 7.798E-04  nbox=  0  T= 2400.00K
     iter. #   101  RMS(g-h-1)= 1.222E-06  nbox= 20  T= 1600.00K
     iter. #   201  RMS(g-h-1)= 3.438E-06  nbox= 20  T=  711.11K
     iter. #   301  RMS(g-h-1)= 2.056E-06  nbox= 20  T=  474.07K
     iter. #   401  RMS(g-h-1)= 1.763E-06  nbox= 20  T=  316.05K
     iter. #   501  RMS(g-h-1)= 4.735E-07  nbox= 20  T=  300.00K
     iter. #   601  RMS(g-h-1)= 1.657E-07  nbox= 20  T=  300.00K
     iter. #   701  RMS(g-h-1)= 1.104E-07  nbox= 20  T=  300.00K
     iter. #   801  RMS(g-h-1)= 9.032E-08  nbox= 20  T=  300.00K
     iter. #   901  RMS(g-h-1)= 7.143E-08  nbox= 20  T=  300.00K
     iter. #  1001  RMS(g-h-1)= 6.179E-08  nbox= 20  T=  300.00K
     iter. #  1101  RMS(g-h-1)= 5.327E-08  nbox= 20  T=  300.00K
     iter. #  1201  RMS(g-h-1)= 4.801E-08  nbox= 20  T=  300.00K
     iter. #  1301  RMS(g-h-1)= 4.365E-08  nbox= 20  T=  300.00K
     iter. #  1401  RMS(g-h-1)= 3.851E-08  nbox= 20  T=  300.00K
     iter. #  1501  RMS(g-h-1)= 3.354E-08  nbox= 20  T=  300.00K
     iter. #  1601  RMS(g-h-1)= 3.242E-08  nbox= 20  T=  300.00K
     iter. #  1701  RMS(g-h-1)= 3.257E-08  nbox= 20  T=  300.00K
     iter. #  1801  RMS(g-h-1)= 3.202E-08  nbox= 20  T=  300.00K
     iter. #  1901  RMS(g-h-1)= 3.140E-08  nbox= 20  T=  300.00K
     iter. #  2001  RMS(g-h-1)= 3.103E-08  nbox= 20  T=  300.00K
     iter. #  2101  RMS(g-h-1)= 3.002E-08  nbox= 20  T=  300.00K
     iter. #  2201  RMS(g-h-1)= 2.905E-08  nbox= 20  T=  300.00K
     iter. #  2301  RMS(g-h-1)= 2.778E-08  nbox= 20  T=  300.00K
     iter. #  2401  RMS(g-h-1)= 2.679E-08  nbox= 20  T=  300.00K
     iter. #  2501  RMS(g-h-1)= 2.575E-08  nbox= 20  T=  300.00K
     iter. #  2601  RMS(g-h-1)= 2.414E-08  nbox= 20  T=  300.00K
     iter. #  2701  RMS(g-h-1)= 2.261E-08  nbox= 20  T=  300.00K
     iter. #  2801  RMS(g-h-1)= 2.036E-08  nbox= 20  T=  300.00K
     iter. #  2901  RMS(g-h-1)= 1.928E-08  nbox= 20  T=  300.00K
     iter. #  3001  RMS(g-h-1)= 1.846E-08  nbox= 20  T=  300.00K
     iter. #  3101  RMS(g-h-1)= 1.770E-08  nbox= 20  T=  300.00K
     iter. #  3201  RMS(g-h-1)= 1.694E-08  nbox= 20  T=  300.00K
     iter. #  3301  RMS(g-h-1)= 1.611E-08  nbox= 20  T=  300.00K
     iter. #  3401  RMS(g-h-1)= 1.540E-08  nbox= 20  T=  300.00K
     iter. #  3501  RMS(g-h-1)= 1.439E-08  nbox= 20  T=  300.00K
     iter. #  3601  RMS(g-h-1)= 1.361E-08  nbox= 20  T=  300.00K
     iter. #  3701  RMS(g-h-1)= 1.289E-08  nbox= 20  T=  300.00K
     iter. #  3801  RMS(g-h-1)= 1.230E-08  nbox= 20  T=  300.00K
     iter. #  3901  RMS(g-h-1)= 1.185E-08  nbox= 20  T=  300.00K
     iter. #  4001  RMS(g-h-1)= 1.140E-08  nbox= 20  T=  300.00K
     iter. #  4101  RMS(g-h-1)= 1.087E-08  nbox= 20  T=  300.00K
     iter. #  4201  RMS(g-h-1)= 1.038E-08  nbox= 20  T=  300.00K
     iter. #  4284  RMS(g-h-1)= 9.990E-09  nbox= 20  T=  300.00K

     End of 1D-RISM calculation


     convergence has been achieved in  4284 iterations


     Chemical potential of solvation

     H2O        H2O        Closure      0.144018E+01 kcal/mol
                           GaussFluct  -0.702227E+01 kcal/mol

                K+         Closure     -0.280526E+00 kcal/mol
                           GaussFluct  -0.350066E+00 kcal/mol

                OH-        Closure     -0.749876E+00 kcal/mol
                           GaussFluct  -0.841417E+00 kcal/mol

                Total      Closure      0.409778E+00 kcal/mol
                           GaussFluct  -0.821376E+01 kcal/mol

     K+         H2O        Closure     -0.155711E+02 kcal/mol
                           GaussFluct  -0.194311E+02 kcal/mol

                K+         Closure      0.351545E+06 kcal/mol
                           GaussFluct   0.351545E+06 kcal/mol

                OH-        Closure     -0.351595E+06 kcal/mol
                           GaussFluct  -0.351595E+06 kcal/mol

                Total      Closure     -0.662661E+02 kcal/mol
                           GaussFluct  -0.701841E+02 kcal/mol

     OH-        H2O        Closure     -0.416233E+02 kcal/mol
                           GaussFluct  -0.467044E+02 kcal/mol

                K+         Closure     -0.351595E+06 kcal/mol
                           GaussFluct  -0.351595E+06 kcal/mol

                OH-        Closure      0.351544E+06 kcal/mol
                           GaussFluct   0.351544E+06 kcal/mol

                Total      Closure     -0.925525E+02 kcal/mol
                           GaussFluct  -0.977562E+02 kcal/mol

 
     Parallelization info
     --------------------
     sticks:   dense  smooth     PW     G-vecs:    dense   smooth      PW
     Min        1136     568    140               163104    57672    7192
     Max        1139     570    142               163114    57682    7206
     Sum       36381   18197   4537              5219483  1845573  230389
 
     Using Slab Decomposition
 


     bravais-lattice index     =            0
     lattice parameter (alat)  =      37.7945  a.u.
     unit-cell volume          =   53986.6731 (a.u.)^3
     number of atoms/cell      =            3
     number of atomic types    =            2
     number of electrons       =         8.00
     number of Kohn-Sham states=            8
     kinetic-energy cutoff     =      40.0000  Ry
     charge density cutoff     =     320.0000  Ry
     scf convergence threshold =      1.0E-08
     mixing beta               =       0.1000
     number of iterations used =            8  plain     mixing
     Exchange-correlation=  SLA  PW   PBX  PBC
                           (   1   4   3   4   0   0   0)

     Effective Screening Medium Method
     =================================
     Boundary Conditions: Vacuum-Slab-Vacuum
     total charge in unit cell        =   0.0000
     grid points for fit at edges     =        4 
 

     celldm(1)=  37.794522  celldm(2)=   0.000000  celldm(3)=   0.000000
     celldm(4)=   0.000000  celldm(5)=   0.000000  celldm(6)=   0.000000

     crystal axes: (cart. coord. in units of alat)
               a(1) = (   1.000000   0.000000   0.000000 )  
               a(2) = (   0.000000   1.000000   0.000000 )  
               a(3) = (   0.000000   0.000000   1.000000 )  

     reciprocal axes: (cart. coord. in units 2 pi/alat)
               b(1) = (  1.000000  0.000000  0.000000 )  
               b(2) = (  0.000000  1.000000  0.000000 )  
               b(3) = (  0.000000  0.000000  1.000000 )  


     PseudoPot. # 1 for O  read from file:
     /beegfs/hotpool/mano/rism/RISM_example/pseudo/o_pbe_v1.2.uspp.F.UPF
     MD5 check sum: 734c27235a0248c51dbae37a1fbe46ec
     Pseudo is Ultrasoft + core correction, Zval =  6.0
     Generated by new atomic code, or converted to UPF format
     Using radial grid of  737 points,  5 beta functions with: 
                l(1) =   0
                l(2) =   0
                l(3) =   1
                l(4) =   1
                l(5) =   2
     Q(r) pseudized with  8 coefficients,  rinner =    0.900   0.900   0.900
                                                       0.900   0.900

     PseudoPot. # 2 for H  read from file:
     /beegfs/hotpool/mano/rism/RISM_example/pseudo/h_pbe_v1.4.uspp.F.UPF
     MD5 check sum: 761ae9a214b05c3daf00ab9f6b793d6f
     Pseudo is Ultrasoft, Zval =  1.0
     Generated by new atomic code, or converted to UPF format
     Using radial grid of  615 points,  2 beta functions with: 
                l(1) =   0
                l(2) =   0
     Q(r) pseudized with  8 coefficients,  rinner =    0.700

     atomic species   valence    mass     pseudopotential
     O                 6.00    15.99900     O ( 1.00)
     H                 1.00     1.00800     H ( 1.00)

     No symmetry found



   Cartesian axes

     site n.     atom                  positions (alat units)
         1        O      tau(   1) = (   0.0055737   0.0055733  -0.0000003  )
         2        H      tau(   2) = (   0.0272132   0.0272133   0.0386372  )
         3        H      tau(   3) = (   0.0272132   0.0272134  -0.0381371  )

     number of k points=     1  Gaussian smearing, width (Ry)=  0.0100
                       cart. coord. in units 2pi/alat
        k(    1) = (   0.0000000   0.0000000   0.0000000), wk =   2.0000000

     Dense  grid:  2609742 G-vectors     FFT dimensions: ( 216, 216, 216)

     Smooth grid:   922787 G-vectors     FFT dimensions: ( 160, 160, 160)

     Estimated max dynamical RAM per process >     199.36 MB

     Estimated total dynamical RAM >       6.23 GB

     Solute:
       # atom     E (kcal/mol)  S (angs)
       1  O       0.15540000    3.16600000    given
       2  H       0.04600000    1.00000000    given
       3  H       0.04600000    1.00000000    given


     Laue-RISM info
     --------------
     closure equation        =           KH
     temperature             =     300.0000  kelvin
     coulomb smearing radius =       2.0000  bohr
     number of solvent sites =            6
     solvent sites           =    O/h2o   H/h2o   L/h2o       K
     solvent sites           =     O/oh    H/oh
     number of iterations    =        15000
     convergence threshold   =      1.0E-06
     convergence level       =       0.8000
     size of MDIIS           =           20
     step of MDIIS           =       0.1000
     solvent cutoff          =     160.0000  Ry
     Custom grid:   922787 G-vectors     FFT dimensions: ( 160, 160, 160)

     Boundary Conditions        : Solvent-Slab-Solvent
     unit-cell (in bohr)        : [ -18.897261  18.897261]
     expand-cell (in bohr)      : [ -79.840927  79.604712]
     solvent of left (in bohr)  : [ -79.840927   0.000000]
     solvent of right (in bohr) : [   0.000000  79.604712]
     reference of potential     : average of both sides
     #grids to fit at edges of unit-cell =    4
     Laue grid:     9099 Gxy-vectors     FFT dimensions: ( 160, 160, 675)


     Initial potential from superposition of free atoms

     starting charge       8.0000, renormalised to       8.0000

     negative rho (up, down):  7.322E-04 0.000E+00

     Laue-RISM Calculation

     convergence threshold    = 6.310E-06
     iter. #     1  RMS(g-h-1)= 1.343E-01  nbox=  0
     iter. #    11  RMS(g-h-1)= 7.915E-03  nbox= 10
     iter. #    21  RMS(g-h-1)= 5.190E-03  nbox= 20
     iter. #    31  RMS(g-h-1)= 1.828E-03  nbox= 20
     iter. #    41  RMS(g-h-1)= 1.317E-03  nbox= 20
     iter. #    51  RMS(g-h-1)= 1.043E-03  nbox= 20
     iter. #    61  RMS(g-h-1)= 7.569E-04  nbox= 20
     iter. #    71  RMS(g-h-1)= 6.548E-04  nbox= 20
     iter. #    81  RMS(g-h-1)= 4.925E-04  nbox=  9
     iter. #    91  RMS(g-h-1)= 3.117E-04  nbox= 19
     iter. #   101  RMS(g-h-1)= 2.333E-04  nbox= 20
     iter. #   111  RMS(g-h-1)= 1.682E-04  nbox= 20
     iter. #   121  RMS(g-h-1)= 1.541E-04  nbox= 20
     iter. #   131  RMS(g-h-1)= 1.167E-04  nbox= 20
     iter. #   141  RMS(g-h-1)= 8.884E-05  nbox= 20
     iter. #   151  RMS(g-h-1)= 7.777E-05  nbox= 20
     iter. #   161  RMS(g-h-1)= 6.963E-05  nbox= 20
     iter. #   171  RMS(g-h-1)= 5.802E-05  nbox= 20
     iter. #   181  RMS(g-h-1)= 4.679E-05  nbox= 20
     iter. #   191  RMS(g-h-1)= 3.976E-05  nbox= 20
     iter. #   201  RMS(g-h-1)= 3.737E-05  nbox=  3
     iter. #   211  RMS(g-h-1)= 2.638E-05  nbox= 13
     iter. #   221  RMS(g-h-1)= 1.620E-05  nbox= 20
     iter. #   231  RMS(g-h-1)= 1.230E-05  nbox= 20
     iter. #   241  RMS(g-h-1)= 1.099E-05  nbox= 20
     iter. #   251  RMS(g-h-1)= 8.633E-06  nbox= 20
     iter. #   261  RMS(g-h-1)= 6.921E-06  nbox= 20
     iter. #   271  RMS(g-h-1)= 6.715E-06  nbox=  2
     iter. #   273  RMS(g-h-1)= 6.217E-06  nbox=  4

     End of Laue-RISM calculation


     convergence has been achieved in   273 iterations


     solvent charge    0.00720, renormalised to    0.00000

     Total number of solvent (in expand-cell)
     H2O         1125.924885
     K+            20.287726
     OH-           20.286496

     Total charge of solvent (in expand-cell)
     H2O            0.002424 e
     K+            20.287726 e
     OH-          -20.282947 e
     Total          0.007203 e

     Chemical potential of solvation (in expand-cell)
     H2O        GaussFluct   0.188031E+01 kcal/mol
     K+         GaussFluct   0.164553E+00 kcal/mol
     OH-        GaussFluct  -0.157116E-01 kcal/mol
     Total      GaussFluct   0.202915E+01 kcal/mol

     Starting wfcs are    6 randomized atomic wfcs +    2 random wfcs

     total cpu time spent up to now is      310.5 secs

     Self-consistent Calculation

     iteration #  1     ecut=    40.00 Ry     beta= 0.10
     Davidson diagonalization with overlap
     ethr =  1.00E-02,  avg # of iterations =  5.0

     negative rho (up, down):  1.117E-03 0.000E+00

     Laue-RISM Calculation

     convergence threshold    = 6.310E-06
     iter. #     1  RMS(g-h-1)= 2.743E-03  nbox=  0
     iter. #    11  RMS(g-h-1)= 3.696E-04  nbox= 10
     iter. #    21  RMS(g-h-1)= 1.589E-04  nbox= 20
     iter. #    31  RMS(g-h-1)= 8.889E-05  nbox= 20
     iter. #    41  RMS(g-h-1)= 5.660E-05  nbox= 20
     iter. #    51  RMS(g-h-1)= 4.440E-05  nbox= 20
     iter. #    61  RMS(g-h-1)= 3.856E-05  nbox= 20
     iter. #    71  RMS(g-h-1)= 3.326E-05  nbox= 20
     iter. #    81  RMS(g-h-1)= 3.084E-05  nbox=  2
     iter. #    91  RMS(g-h-1)= 2.418E-05  nbox= 12
     iter. #   101  RMS(g-h-1)= 1.717E-05  nbox= 20
     iter. #   111  RMS(g-h-1)= 1.229E-05  nbox= 20
     iter. #   121  RMS(g-h-1)= 9.172E-06  nbox= 20
     iter. #   131  RMS(g-h-1)= 7.558E-06  nbox= 20
     iter. #   135  RMS(g-h-1)= 6.258E-06  nbox= 20

     End of Laue-RISM calculation


     convergence has been achieved in   135 iterations


     solvent charge   -0.00268, renormalised to    0.00000

     Total number of solvent (in expand-cell)
     H2O         1125.985816
     K+            20.284692
     OH-           20.284861

     Total charge of solvent (in expand-cell)
     H2O            0.002112 e
     K+            20.284692 e
     OH-          -20.289484 e
     Total         -0.002680 e

     Chemical potential of solvation (in expand-cell)
     H2O        GaussFluct   0.153894E+01 kcal/mol
     K+         GaussFluct   0.100041E+00 kcal/mol
     OH-        GaussFluct   0.258294E-01 kcal/mol
     Total      GaussFluct   0.166481E+01 kcal/mol


     total cpu time spent up to now is      431.4 secs

     total energy              =     -34.74629547 Ry
     estimated scf accuracy    <       0.45881606 Ry

     iteration #  2     ecut=    40.00 Ry     beta= 0.10
     Davidson diagonalization with overlap
     ethr =  5.74E-03,  avg # of iterations =  1.0

     negative rho (up, down):  4.072E-03 0.000E+00

     Laue-RISM Calculation

     convergence threshold    = 6.310E-06
     iter. #     1  RMS(g-h-1)= 8.872E-03  nbox=  0
     iter. #    11  RMS(g-h-1)= 1.359E-03  nbox= 10
     iter. #    21  RMS(g-h-1)= 7.249E-04  nbox= 20
     iter. #    31  RMS(g-h-1)= 3.150E-04  nbox= 20
     iter. #    41  RMS(g-h-1)= 2.043E-04  nbox= 20
     iter. #    51  RMS(g-h-1)= 1.777E-04  nbox= 20
     iter. #    61  RMS(g-h-1)= 1.513E-04  nbox= 20
     iter. #    71  RMS(g-h-1)= 1.402E-04  nbox=  3
     iter. #    81  RMS(g-h-1)= 1.122E-04  nbox= 13
     iter. #    91  RMS(g-h-1)= 8.334E-05  nbox=  7
     iter. #   101  RMS(g-h-1)= 6.142E-05  nbox= 17
     iter. #   111  RMS(g-h-1)= 4.074E-05  nbox= 20
     iter. #   121  RMS(g-h-1)= 3.450E-05  nbox= 20
     iter. #   131  RMS(g-h-1)= 3.004E-05  nbox=  5
     iter. #   141  RMS(g-h-1)= 1.677E-05  nbox= 15
     iter. #   151  RMS(g-h-1)= 9.330E-06  nbox= 20
     iter. #   161  RMS(g-h-1)= 7.266E-06  nbox= 20
     iter. #   169  RMS(g-h-1)= 6.152E-06  nbox= 20

     End of Laue-RISM calculation


     convergence has been achieved in   169 iterations


     solvent charge   -0.01475, renormalised to   -0.00000

     Total number of solvent (in expand-cell)
     H2O         1126.258472
     K+            20.312988
     OH-           20.314642

     Total charge of solvent (in expand-cell)
     H2O           -0.012072 e
     K+            20.312988 e
     OH-          -20.315670 e
     Total         -0.014754 e

     Chemical potential of solvation (in expand-cell)
     H2O        GaussFluct  -0.938841E+00 kcal/mol
     K+         GaussFluct  -0.305808E+00 kcal/mol
     OH-        GaussFluct   0.602661E-02 kcal/mol
     Total      GaussFluct  -0.123862E+01 kcal/mol


     total cpu time spent up to now is      577.6 secs

     total energy              =     -34.63160083 Ry
     estimated scf accuracy    <       0.27209703 Ry

     iteration #  3     ecut=    40.00 Ry     beta= 0.10
     Davidson diagonalization with overlap
     ethr =  3.40E-03,  avg # of iterations =  2.0

     negative rho (up, down):  4.527E-03 0.000E+00

     Laue-RISM Calculation

     convergence threshold    = 5.657E-06
     iter. #     1  RMS(g-h-1)= 1.239E-03  nbox=  0
     iter. #    11  RMS(g-h-1)= 9.310E-05  nbox= 10
     iter. #    21  RMS(g-h-1)= 4.105E-05  nbox= 20
     iter. #    31  RMS(g-h-1)= 1.788E-05  nbox= 20
     iter. #    41  RMS(g-h-1)= 1.271E-05  nbox= 20
     iter. #    51  RMS(g-h-1)= 9.306E-06  nbox= 20
     iter. #    61  RMS(g-h-1)= 7.270E-06  nbox= 20
     iter. #    71  RMS(g-h-1)= 6.282E-06  nbox= 20
     iter. #    78  RMS(g-h-1)= 5.337E-06  nbox= 20

     End of Laue-RISM calculation


     convergence has been achieved in    78 iterations


     solvent charge   -0.00968, renormalised to   -0.00000

     Total number of solvent (in expand-cell)
     H2O         1126.296228
     K+            20.321863
     OH-           20.321788

     Total charge of solvent (in expand-cell)
     H2O           -0.011468 e
     K+            20.321863 e
     OH-          -20.320071 e
     Total         -0.009676 e

     Chemical potential of solvation (in expand-cell)
     H2O        GaussFluct  -0.136382E+01 kcal/mol
     K+         GaussFluct  -0.394192E+00 kcal/mol
     OH-        GaussFluct   0.462093E-02 kcal/mol
     Total      GaussFluct  -0.175339E+01 kcal/mol


     total cpu time spent up to now is      652.1 secs

     total energy              =     -34.68453953 Ry
     estimated scf accuracy    <       0.02186080 Ry

     iteration #  4     ecut=    40.00 Ry     beta= 0.10
     Davidson diagonalization with overlap
     ethr =  2.73E-04,  avg # of iterations =  8.0

     negative rho (up, down):  9.582E-03 0.000E+00

     Laue-RISM Calculation

     convergence threshold    = 5.176E-06
     iter. #     1  RMS(g-h-1)= 4.197E-03  nbox=  0
     iter. #    11  RMS(g-h-1)= 6.397E-04  nbox= 10
     iter. #    21  RMS(g-h-1)= 3.076E-04  nbox= 20
     iter. #    31  RMS(g-h-1)= 1.494E-04  nbox= 20
     iter. #    41  RMS(g-h-1)= 1.147E-04  nbox= 20
     iter. #    51  RMS(g-h-1)= 9.637E-05  nbox= 20
     iter. #    61  RMS(g-h-1)= 7.870E-05  nbox= 20
     iter. #    71  RMS(g-h-1)= 7.019E-05  nbox= 20
     iter. #    81  RMS(g-h-1)= 6.715E-05  nbox= 20
     iter. #    91  RMS(g-h-1)= 5.716E-05  nbox=  7
     iter. #   101  RMS(g-h-1)= 4.072E-05  nbox= 17
     iter. #   111  RMS(g-h-1)= 2.935E-05  nbox= 20
     iter. #   121  RMS(g-h-1)= 1.782E-05  nbox= 20
     iter. #   131  RMS(g-h-1)= 1.524E-05  nbox= 20
     iter. #   141  RMS(g-h-1)= 1.405E-05  nbox=  3
     iter. #   151  RMS(g-h-1)= 8.922E-06  nbox= 13
     iter. #   161  RMS(g-h-1)= 6.812E-06  nbox= 20
     iter. #   171  RMS(g-h-1)= 5.337E-06  nbox=  3
     iter. #   173  RMS(g-h-1)= 5.127E-06  nbox=  5

     End of Laue-RISM calculation


     convergence has been achieved in   173 iterations


     solvent charge   -0.00806, renormalised to   -0.00000

     Total number of solvent (in expand-cell)
     H2O         1126.593536
     K+            20.373839
     OH-           20.374241

     Total charge of solvent (in expand-cell)
     H2O           -0.006119 e
     K+            20.373839 e
     OH-          -20.375775 e
     Total         -0.008055 e

     Chemical potential of solvation (in expand-cell)
     H2O        GaussFluct  -0.494345E+01 kcal/mol
     K+         GaussFluct  -0.999957E+00 kcal/mol
     OH-        GaussFluct  -0.291524E+00 kcal/mol
     Total      GaussFluct  -0.623493E+01 kcal/mol


     total cpu time spent up to now is      802.4 secs

     total energy              =     -34.68646672 Ry
     estimated scf accuracy    <       0.01571339 Ry

     iteration #  5     ecut=    40.00 Ry     beta= 0.10
     Davidson diagonalization with overlap
     ethr =  1.96E-04,  avg # of iterations =  7.0

     negative rho (up, down):  9.335E-03 0.000E+00

     Laue-RISM Calculation

     convergence threshold    = 3.294E-06
     iter. #     1  RMS(g-h-1)= 9.707E-04  nbox=  0
     iter. #    11  RMS(g-h-1)= 1.306E-04  nbox= 10
     iter. #    21  RMS(g-h-1)= 4.911E-05  nbox= 20
     iter. #    31  RMS(g-h-1)= 2.915E-05  nbox= 20
     iter. #    41  RMS(g-h-1)= 2.158E-05  nbox= 20
     iter. #    51  RMS(g-h-1)= 1.646E-05  nbox= 20
     iter. #    61  RMS(g-h-1)= 1.519E-05  nbox= 20
     iter. #    71  RMS(g-h-1)= 1.218E-05  nbox= 20
     iter. #    81  RMS(g-h-1)= 9.815E-06  nbox= 20
     iter. #    91  RMS(g-h-1)= 8.764E-06  nbox= 20
     iter. #   101  RMS(g-h-1)= 7.745E-06  nbox= 20
     iter. #   111  RMS(g-h-1)= 6.567E-06  nbox= 20
     iter. #   121  RMS(g-h-1)= 5.882E-06  nbox= 20
     iter. #   131  RMS(g-h-1)= 4.794E-06  nbox= 20
     iter. #   141  RMS(g-h-1)= 4.213E-06  nbox= 20
     iter. #   151  RMS(g-h-1)= 3.740E-06  nbox= 20
     iter. #   161  RMS(g-h-1)= 3.402E-06  nbox=  8
     iter. #   166  RMS(g-h-1)= 3.285E-06  nbox= 13

     End of Laue-RISM calculation


     convergence has been achieved in   166 iterations


     solvent charge   -0.00607, renormalised to   -0.00000

     Total number of solvent (in expand-cell)
     H2O         1126.645229
     K+            20.382378
     OH-           20.382341

     Total charge of solvent (in expand-cell)
     H2O           -0.005534 e
     K+            20.382378 e
     OH-          -20.382915 e
     Total         -0.006071 e

     Chemical potential of solvation (in expand-cell)
     H2O        GaussFluct  -0.558252E+01 kcal/mol
     K+         GaussFluct  -0.110321E+01 kcal/mol
     OH-        GaussFluct  -0.360464E+00 kcal/mol
     Total      GaussFluct  -0.704619E+01 kcal/mol


     total cpu time spent up to now is      949.5 secs

     total energy              =     -34.68596888 Ry
     estimated scf accuracy    <       0.00293676 Ry

     iteration #  6     ecut=    40.00 Ry     beta= 0.10
     Davidson diagonalization with overlap
     ethr =  3.67E-05,  avg # of iterations =  8.0

     negative rho (up, down):  8.729E-03 0.000E+00

     Laue-RISM Calculation

     convergence threshold    = 1.947E-06
     iter. #     1  RMS(g-h-1)= 3.992E-04  nbox=  0
     iter. #    11  RMS(g-h-1)= 5.501E-05  nbox= 10
     iter. #    21  RMS(g-h-1)= 2.121E-05  nbox= 20
     iter. #    31  RMS(g-h-1)= 1.176E-05  nbox= 20
     iter. #    41  RMS(g-h-1)= 8.578E-06  nbox= 20
     iter. #    51  RMS(g-h-1)= 7.650E-06  nbox= 20
     iter. #    61  RMS(g-h-1)= 5.993E-06  nbox= 11
     iter. #    71  RMS(g-h-1)= 4.291E-06  nbox= 20
     iter. #    81  RMS(g-h-1)= 3.368E-06  nbox= 20
     iter. #    91  RMS(g-h-1)= 2.955E-06  nbox=  9
     iter. #   101  RMS(g-h-1)= 2.718E-06  nbox=  3
     iter. #   111  RMS(g-h-1)= 2.495E-06  nbox= 13
     iter. #   121  RMS(g-h-1)= 2.310E-06  nbox=  7
     iter. #   131  RMS(g-h-1)= 2.176E-06  nbox= 17
     iter. #   141  RMS(g-h-1)= 2.089E-06  nbox= 11
     iter. #   151  RMS(g-h-1)= 2.022E-06  nbox=  5
     iter. #   156  RMS(g-h-1)= 1.936E-06  nbox= 10

     End of Laue-RISM calculation


     convergence has been achieved in   156 iterations


     solvent charge   -0.00520, renormalised to   -0.00000

     Total number of solvent (in expand-cell)
     H2O         1126.642685
     K+            20.380923
     OH-           20.380653

     Total charge of solvent (in expand-cell)
     H2O           -0.005638 e
     K+            20.380923 e
     OH-          -20.380482 e
     Total         -0.005197 e

     Chemical potential of solvation (in expand-cell)
     H2O        GaussFluct  -0.551355E+01 kcal/mol
     K+         GaussFluct  -0.108739E+01 kcal/mol
     OH-        GaussFluct  -0.352239E+00 kcal/mol
     Total      GaussFluct  -0.695318E+01 kcal/mol


     total cpu time spent up to now is     1079.9 secs

     total energy              =     -34.68703433 Ry
     estimated scf accuracy    <       0.00041738 Ry

     iteration #  7     ecut=    40.00 Ry     beta= 0.10
     Davidson diagonalization with overlap
     ethr =  5.22E-06,  avg # of iterations =  6.0

     negative rho (up, down):  7.947E-03 0.000E+00

     Laue-RISM Calculation

     convergence threshold    = 2.930E-06
     iter. #     1  RMS(g-h-1)= 1.028E-03  nbox=  0
     iter. #    11  RMS(g-h-1)= 1.479E-04  nbox= 10
     iter. #    21  RMS(g-h-1)= 5.968E-05  nbox= 20
     iter. #    31  RMS(g-h-1)= 3.455E-05  nbox= 20
     iter. #    41  RMS(g-h-1)= 2.526E-05  nbox= 20
     iter. #    51  RMS(g-h-1)= 1.934E-05  nbox= 20
     iter. #    61  RMS(g-h-1)= 1.629E-05  nbox= 20
     iter. #    71  RMS(g-h-1)= 1.470E-05  nbox=  4
     iter. #    81  RMS(g-h-1)= 1.054E-05  nbox= 14
     iter. #    91  RMS(g-h-1)= 6.447E-06  nbox= 20
     iter. #   101  RMS(g-h-1)= 4.582E-06  nbox= 20
     iter. #   111  RMS(g-h-1)= 3.882E-06  nbox= 20
     iter. #   121  RMS(g-h-1)= 3.025E-06  nbox= 20
     iter. #   131  RMS(g-h-1)= 2.951E-06  nbox= 20
     iter. #   133  RMS(g-h-1)= 2.918E-06  nbox=  3

     End of Laue-RISM calculation


     convergence has been achieved in   133 iterations


     solvent charge   -0.00549, renormalised to    0.00000

     Total number of solvent (in expand-cell)
     H2O         1126.703258
     K+            20.395363
     OH-           20.395929

     Total charge of solvent (in expand-cell)
     H2O           -0.005658 e
     K+            20.395363 e
     OH-          -20.395198 e
     Total         -0.005494 e

     Chemical potential of solvation (in expand-cell)
     H2O        GaussFluct  -0.646161E+01 kcal/mol
     K+         GaussFluct  -0.125713E+01 kcal/mol
     OH-        GaussFluct  -0.462069E+00 kcal/mol
     Total      GaussFluct  -0.818080E+01 kcal/mol


     total cpu time spent up to now is     1198.1 secs

     total energy              =     -34.68674669 Ry
     estimated scf accuracy    <       0.00190172 Ry

     iteration #  8     ecut=    40.00 Ry     beta= 0.10
     Davidson diagonalization with overlap
     ethr =  5.22E-06,  avg # of iterations =  3.0

     negative rho (up, down):  7.408E-03 0.000E+00

     Laue-RISM Calculation

     convergence threshold    = 1.770E-06
     iter. #     1  RMS(g-h-1)= 1.413E-04  nbox=  0
     iter. #    11  RMS(g-h-1)= 1.695E-05  nbox= 10
     iter. #    21  RMS(g-h-1)= 6.386E-06  nbox= 20
     iter. #    31  RMS(g-h-1)= 4.459E-06  nbox= 20
     iter. #    41  RMS(g-h-1)= 4.042E-06  nbox= 20
     iter. #    51  RMS(g-h-1)= 3.568E-06  nbox=  6
     iter. #    61  RMS(g-h-1)= 3.044E-06  nbox= 16
     iter. #    71  RMS(g-h-1)= 2.400E-06  nbox= 10
     iter. #    81  RMS(g-h-1)= 2.153E-06  nbox=  4
     iter. #    91  RMS(g-h-1)= 2.004E-06  nbox= 14
     iter. #   101  RMS(g-h-1)= 1.924E-06  nbox=  8
     iter. #   111  RMS(g-h-1)= 1.870E-06  nbox=  2
     iter. #   120  RMS(g-h-1)= 1.763E-06  nbox= 11

     End of Laue-RISM calculation


     convergence has been achieved in   120 iterations


     solvent charge   -0.00588, renormalised to    0.00000

     Total number of solvent (in expand-cell)
     H2O         1126.701900
     K+            20.395385
     OH-           20.395376

     Total charge of solvent (in expand-cell)
     H2O           -0.005682 e
     K+            20.395385 e
     OH-          -20.395581 e
     Total         -0.005878 e

     Chemical potential of solvation (in expand-cell)
     H2O        GaussFluct  -0.645247E+01 kcal/mol
     K+         GaussFluct  -0.125833E+01 kcal/mol
     OH-        GaussFluct  -0.461274E+00 kcal/mol
     Total      GaussFluct  -0.817207E+01 kcal/mol


     total cpu time spent up to now is     1299.8 secs

     total energy              =     -34.68677414 Ry
     estimated scf accuracy    <       0.00029304 Ry

     iteration #  9     ecut=    40.00 Ry     beta= 0.10
     Davidson diagonalization with overlap
     ethr =  3.66E-06,  avg # of iterations =  2.0

     negative rho (up, down):  6.989E-03 0.000E+00

     Laue-RISM Calculation

     convergence threshold    = 1.036E-06
     iter. #     1  RMS(g-h-1)= 8.189E-06  nbox=  0
     iter. #    11  RMS(g-h-1)= 2.104E-06  nbox= 10
     iter. #    21  RMS(g-h-1)= 1.723E-06  nbox= 20
     iter. #    31  RMS(g-h-1)= 1.673E-06  nbox=  9
     iter. #    41  RMS(g-h-1)= 1.645E-06  nbox=  3
     iter. #    51  RMS(g-h-1)= 1.601E-06  nbox= 13
     iter. #    61  RMS(g-h-1)= 1.547E-06  nbox=  7
     iter. #    71  RMS(g-h-1)= 1.518E-06  nbox= 17
     iter. #    81  RMS(g-h-1)= 1.581E-06  nbox= 11
     iter. #    91  RMS(g-h-1)= 1.471E-06  nbox=  5
     iter. #   101  RMS(g-h-1)= 1.355E-06  nbox= 15
     iter. #   111  RMS(g-h-1)= 1.318E-06  nbox=  9
     iter. #   121  RMS(g-h-1)= 1.311E-06  nbox=  3
     iter. #   131  RMS(g-h-1)= 1.298E-06  nbox= 13
     iter. #   141  RMS(g-h-1)= 1.281E-06  nbox=  7
     iter. #   151  RMS(g-h-1)= 1.258E-06  nbox= 17
     iter. #   161  RMS(g-h-1)= 1.226E-06  nbox= 11
     iter. #   171  RMS(g-h-1)= 1.194E-06  nbox=  5
     iter. #   181  RMS(g-h-1)= 1.155E-06  nbox= 15
     iter. #   191  RMS(g-h-1)= 1.109E-06  nbox=  9
     iter. #   201  RMS(g-h-1)= 1.078E-06  nbox=  3
     iter. #   211  RMS(g-h-1)= 1.037E-06  nbox= 13
     iter. #   212  RMS(g-h-1)= 1.032E-06  nbox= 14

     End of Laue-RISM calculation


     convergence has been achieved in   212 iterations


     solvent charge   -0.00567, renormalised to    0.00000

     Total number of solvent (in expand-cell)
     H2O         1126.701326
     K+            20.395326
     OH-           20.395239

     Total charge of solvent (in expand-cell)
     H2O           -0.005694 e
     K+            20.395326 e
     OH-          -20.395302 e
     Total         -0.005670 e

     Chemical potential of solvation (in expand-cell)
     H2O        GaussFluct  -0.644937E+01 kcal/mol
     K+         GaussFluct  -0.125801E+01 kcal/mol
     OH-        GaussFluct  -0.460564E+00 kcal/mol
     Total      GaussFluct  -0.816795E+01 kcal/mol


     total cpu time spent up to now is     1466.9 secs

     total energy              =     -34.68679621 Ry
     estimated scf accuracy    <       0.00004020 Ry

     iteration # 10     ecut=    40.00 Ry     beta= 0.10
     Davidson diagonalization with overlap
     c_bands:  1 eigenvalues not converged
     ethr =  5.03E-07,  avg # of iterations = 20.0

     negative rho (up, down):  6.646E-03 0.000E+00

     Laue-RISM Calculation

     convergence threshold    = 1.000E-06
     iter. #     1  RMS(g-h-1)= 2.530E-05  nbox=  0
     iter. #    11  RMS(g-h-1)= 3.563E-06  nbox= 10
     iter. #    21  RMS(g-h-1)= 1.486E-06  nbox= 20
     iter. #    31  RMS(g-h-1)= 1.222E-06  nbox= 20
     iter. #    41  RMS(g-h-1)= 1.158E-06  nbox=  5
     iter. #    51  RMS(g-h-1)= 1.048E-06  nbox= 15
     iter. #    61  RMS(g-h-1)= 1.017E-06  nbox=  9
     iter. #    63  RMS(g-h-1)= 9.997E-07  nbox= 11

     End of Laue-RISM calculation


     convergence has been achieved in    63 iterations


     solvent charge   -0.00561, renormalised to    0.00000

     Total number of solvent (in expand-cell)
     H2O         1126.699396
     K+            20.395187
     OH-           20.395199

     Total charge of solvent (in expand-cell)
     H2O           -0.005710 e
     K+            20.395187 e
     OH-          -20.395090 e
     Total         -0.005613 e

     Chemical potential of solvation (in expand-cell)
     H2O        GaussFluct  -0.643020E+01 kcal/mol
     K+         GaussFluct  -0.125567E+01 kcal/mol
     OH-        GaussFluct  -0.458089E+00 kcal/mol
     Total      GaussFluct  -0.814396E+01 kcal/mol


     total cpu time spent up to now is     1525.7 secs

     total energy              =     -34.68679194 Ry
     estimated scf accuracy    <       0.00002643 Ry

     iteration # 11     ecut=    40.00 Ry     beta= 0.10
     Davidson diagonalization with overlap
     ethr =  3.30E-07,  avg # of iterations =  1.0

     negative rho (up, down):  6.400E-03 0.000E+00

     Laue-RISM Calculation

     convergence threshold    = 1.000E-06
     iter. #     1  RMS(g-h-1)= 3.605E-05  nbox=  0
     iter. #    11  RMS(g-h-1)= 4.409E-06  nbox= 10
     iter. #    21  RMS(g-h-1)= 1.793E-06  nbox= 20
     iter. #    31  RMS(g-h-1)= 1.283E-06  nbox= 20
     iter. #    41  RMS(g-h-1)= 1.121E-06  nbox=  3
     iter. #    51  RMS(g-h-1)= 1.046E-06  nbox= 13
     iter. #    57  RMS(g-h-1)= 9.974E-07  nbox=  3

     End of Laue-RISM calculation


     convergence has been achieved in    57 iterations


     solvent charge   -0.00557, renormalised to    0.00000

     Total number of solvent (in expand-cell)
     H2O         1126.696618
     K+            20.394823
     OH-           20.394765

     Total charge of solvent (in expand-cell)
     H2O           -0.005746 e
     K+            20.394823 e
     OH-          -20.394650 e
     Total         -0.005574 e

     Chemical potential of solvation (in expand-cell)
     H2O        GaussFluct  -0.639567E+01 kcal/mol
     K+         GaussFluct  -0.125061E+01 kcal/mol
     OH-        GaussFluct  -0.453771E+00 kcal/mol
     Total      GaussFluct  -0.810006E+01 kcal/mol


     total cpu time spent up to now is     1580.0 secs

     total energy              =     -34.68678180 Ry
     estimated scf accuracy    <       0.00001694 Ry

     iteration # 12     ecut=    40.00 Ry     beta= 0.10
     Davidson diagonalization with overlap
     ethr =  2.12E-07,  avg # of iterations =  2.0

     negative rho (up, down):  6.221E-03 0.000E+00

     Laue-RISM Calculation

     convergence threshold    = 1.000E-06
     iter. #     1  RMS(g-h-1)= 8.569E-06  nbox=  0
     iter. #    11  RMS(g-h-1)= 1.485E-06  nbox= 10
     iter. #    21  RMS(g-h-1)= 1.054E-06  nbox= 20
     iter. #    31  RMS(g-h-1)= 1.006E-06  nbox= 20
     iter. #    35  RMS(g-h-1)= 9.995E-07  nbox=  3

     End of Laue-RISM calculation


     convergence has been achieved in    35 iterations


     solvent charge   -0.00547, renormalised to    0.00000

     Total number of solvent (in expand-cell)
     H2O         1126.696249
     K+            20.394866
     OH-           20.394729

     Total charge of solvent (in expand-cell)
     H2O           -0.005746 e
     K+            20.394866 e
     OH-          -20.394591 e
     Total         -0.005471 e

     Chemical potential of solvation (in expand-cell)
     H2O        GaussFluct  -0.639248E+01 kcal/mol
     K+         GaussFluct  -0.125044E+01 kcal/mol
     OH-        GaussFluct  -0.453153E+00 kcal/mol
     Total      GaussFluct  -0.809608E+01 kcal/mol


     total cpu time spent up to now is     1617.9 secs

     total energy              =     -34.68678026 Ry
     estimated scf accuracy    <       0.00000252 Ry

     iteration # 13     ecut=    40.00 Ry     beta= 0.10
     Davidson diagonalization with overlap
     ethr =  3.16E-08,  avg # of iterations =  2.0

     negative rho (up, down):  6.100E-03 0.000E+00

     Laue-RISM Calculation

     convergence threshold    = 1.000E-06
     iter. #     1  RMS(g-h-1)= 8.544E-06  nbox=  0
     iter. #    11  RMS(g-h-1)= 1.416E-06  nbox= 10
     iter. #    21  RMS(g-h-1)= 1.047E-06  nbox= 20
     iter. #    31  RMS(g-h-1)= 1.001E-06  nbox=  2
     iter. #    32  RMS(g-h-1)= 9.958E-07  nbox=  3

     End of Laue-RISM calculation


     convergence has been achieved in    32 iterations


     solvent charge   -0.00556, renormalised to    0.00000

     Total number of solvent (in expand-cell)
     H2O         1126.695663
     K+            20.394762
     OH-           20.394682

     Total charge of solvent (in expand-cell)
     H2O           -0.005767 e
     K+            20.394762 e
     OH-          -20.394559 e
     Total         -0.005564 e

     Chemical potential of solvation (in expand-cell)
     H2O        GaussFluct  -0.638557E+01 kcal/mol
     K+         GaussFluct  -0.124935E+01 kcal/mol
     OH-        GaussFluct  -0.452314E+00 kcal/mol
     Total      GaussFluct  -0.808723E+01 kcal/mol


     total cpu time spent up to now is     1653.0 secs

     total energy              =     -34.68677776 Ry
     estimated scf accuracy    <       0.00000099 Ry

     iteration # 14     ecut=    40.00 Ry     beta= 0.10
     Davidson diagonalization with overlap
     ethr =  1.24E-08,  avg # of iterations =  2.0

     negative rho (up, down):  6.020E-03 0.000E+00

     Laue-RISM Calculation

     convergence threshold    = 1.000E-06
     iter. #     1  RMS(g-h-1)= 3.864E-06  nbox=  0
     iter. #    11  RMS(g-h-1)= 1.089E-06  nbox= 10
     iter. #    19  RMS(g-h-1)= 9.993E-07  nbox= 18

     End of Laue-RISM calculation


     convergence has been achieved in    19 iterations


     solvent charge   -0.00551, renormalised to   -0.00000

     Total number of solvent (in expand-cell)
     H2O         1126.695419
     K+            20.394800
     OH-           20.394669

     Total charge of solvent (in expand-cell)
     H2O           -0.005770 e
     K+            20.394800 e
     OH-          -20.394538 e
     Total         -0.005508 e

     Chemical potential of solvation (in expand-cell)
     H2O        GaussFluct  -0.638431E+01 kcal/mol
     K+         GaussFluct  -0.124932E+01 kcal/mol
     OH-        GaussFluct  -0.452147E+00 kcal/mol
     Total      GaussFluct  -0.808578E+01 kcal/mol


     total cpu time spent up to now is     1677.5 secs

     total energy              =     -34.68677632 Ry
     estimated scf accuracy    <       0.00000007 Ry

     iteration # 15     ecut=    40.00 Ry     beta= 0.10
     Davidson diagonalization with overlap
     ethr =  8.63E-10,  avg # of iterations =  2.0

     negative rho (up, down):  5.969E-03 0.000E+00

     Laue-RISM Calculation

     convergence threshold    = 1.000E-06
     iter. #     1  RMS(g-h-1)= 3.909E-06  nbox=  0
     iter. #    11  RMS(g-h-1)= 1.124E-06  nbox= 10
     iter. #    20  RMS(g-h-1)= 9.973E-07  nbox= 19

     End of Laue-RISM calculation


     convergence has been achieved in    20 iterations


     solvent charge   -0.00544, renormalised to   -0.00000

     Total number of solvent (in expand-cell)
     H2O         1126.695224
     K+            20.394864
     OH-           20.394685

     Total charge of solvent (in expand-cell)
     H2O           -0.005771 e
     K+            20.394864 e
     OH-          -20.394533 e
     Total         -0.005441 e

     Chemical potential of solvation (in expand-cell)
     H2O        GaussFluct  -0.638408E+01 kcal/mol
     K+         GaussFluct  -0.124967E+01 kcal/mol
     OH-        GaussFluct  -0.452366E+00 kcal/mol
     Total      GaussFluct  -0.808612E+01 kcal/mol


     total cpu time spent up to now is     1703.0 secs

     total energy              =     -34.68677526 Ry
     estimated scf accuracy    <       0.00000004 Ry

     iteration # 16     ecut=    40.00 Ry     beta= 0.10
     Davidson diagonalization with overlap
     ethr =  4.39E-10,  avg # of iterations =  1.0

     negative rho (up, down):  5.947E-03 0.000E+00

     Laue-RISM Calculation

     convergence threshold    = 1.000E-06
     iter. #     1  RMS(g-h-1)= 2.293E-06  nbox=  0
     iter. #    11  RMS(g-h-1)= 1.043E-06  nbox= 10
     iter. #    16  RMS(g-h-1)= 9.974E-07  nbox= 15

     End of Laue-RISM calculation


     convergence has been achieved in    16 iterations


     solvent charge   -0.00546, renormalised to   -0.00000

     Total number of solvent (in expand-cell)
     H2O         1126.695022
     K+            20.394844
     OH-           20.394681

     Total charge of solvent (in expand-cell)
     H2O           -0.005779 e
     K+            20.394844 e
     OH-          -20.394528 e
     Total         -0.005464 e

     Chemical potential of solvation (in expand-cell)
     H2O        GaussFluct  -0.638229E+01 kcal/mol
     K+         GaussFluct  -0.124929E+01 kcal/mol
     OH-        GaussFluct  -0.452265E+00 kcal/mol
     Total      GaussFluct  -0.808385E+01 kcal/mol


     total cpu time spent up to now is     1725.3 secs

     total energy              =     -34.68677433 Ry
     estimated scf accuracy    <       0.00000001 Ry

     iteration # 17     ecut=    40.00 Ry     beta= 0.10
     Davidson diagonalization with overlap
     ethr =  1.87E-10,  avg # of iterations =  2.0

     negative rho (up, down):  5.946E-03 0.000E+00

     Laue-RISM Calculation

     convergence threshold    = 1.000E-06
     iter. #     1  RMS(g-h-1)= 1.303E-06  nbox=  0
     iter. #     6  RMS(g-h-1)= 9.973E-07  nbox=  5

     End of Laue-RISM calculation


     convergence has been achieved in     6 iterations


     solvent charge   -0.00552, renormalised to   -0.00000

     Total number of solvent (in expand-cell)
     H2O         1126.695121
     K+            20.394823
     OH-           20.394694

     Total charge of solvent (in expand-cell)
     H2O           -0.005790 e
     K+            20.394823 e
     OH-          -20.394556 e
     Total         -0.005522 e

     Chemical potential of solvation (in expand-cell)
     H2O        GaussFluct  -0.638291E+01 kcal/mol
     K+         GaussFluct  -0.124948E+01 kcal/mol
     OH-        GaussFluct  -0.452497E+00 kcal/mol
     Total      GaussFluct  -0.808489E+01 kcal/mol


     total cpu time spent up to now is     1740.0 secs

     total energy              =     -34.68677382 Ry
     estimated scf accuracy    <       0.00000003 Ry

     iteration # 18     ecut=    40.00 Ry     beta= 0.10
     Davidson diagonalization with overlap
     ethr =  1.87E-10,  avg # of iterations =  1.0

     negative rho (up, down):  5.955E-03 0.000E+00

     Laue-RISM Calculation

     convergence threshold    = 1.000E-06
     iter. #     1  RMS(g-h-1)= 2.801E-06  nbox=  0
     iter. #    11  RMS(g-h-1)= 1.021E-06  nbox= 10
     iter. #    13  RMS(g-h-1)= 9.937E-07  nbox= 12

     End of Laue-RISM calculation


     convergence has been achieved in    13 iterations


     solvent charge   -0.00560, renormalised to   -0.00000

     Total number of solvent (in expand-cell)
     H2O         1126.695226
     K+            20.394786
     OH-           20.394747

     Total charge of solvent (in expand-cell)
     H2O           -0.005752 e
     K+            20.394786 e
     OH-          -20.394633 e
     Total         -0.005599 e

     Chemical potential of solvation (in expand-cell)
     H2O        GaussFluct  -0.638389E+01 kcal/mol
     K+         GaussFluct  -0.124957E+01 kcal/mol
     OH-        GaussFluct  -0.453018E+00 kcal/mol
     Total      GaussFluct  -0.808648E+01 kcal/mol


     total cpu time spent up to now is     1759.8 secs

     total energy              =     -34.68677339 Ry
     estimated scf accuracy    <       0.00000003 Ry

     iteration # 19     ecut=    40.00 Ry     beta= 0.10
     Davidson diagonalization with overlap
     ethr =  1.87E-10,  avg # of iterations =  2.0

     negative rho (up, down):  6.510E-03 0.000E+00

     Laue-RISM Calculation

     convergence threshold    = 1.000E-06
     iter. #     1  RMS(g-h-1)= 1.294E-06  nbox=  0
     iter. #     7  RMS(g-h-1)= 9.941E-07  nbox=  6

     End of Laue-RISM calculation


     convergence has been achieved in     7 iterations


     solvent charge   -0.00563, renormalised to    0.00000

     Total number of solvent (in expand-cell)
     H2O         1126.695342
     K+            20.394783
     OH-           20.394746

     Total charge of solvent (in expand-cell)
     H2O           -0.005764 e
     K+            20.394783 e
     OH-          -20.394644 e
     Total         -0.005625 e

     Chemical potential of solvation (in expand-cell)
     H2O        GaussFluct  -0.638458E+01 kcal/mol
     K+         GaussFluct  -0.124976E+01 kcal/mol
     OH-        GaussFluct  -0.453143E+00 kcal/mol
     Total      GaussFluct  -0.808749E+01 kcal/mol


     total cpu time spent up to now is     1775.1 secs

     End of self-consistent calculation

          k = 0.0000 0.0000 0.0000 (115195 PWs)   bands (ev):

   -25.0947 -12.7606  -9.4676  -7.3644  -0.7281  -0.1766   0.1058   0.1077

     the Fermi energy is    -5.5126 ev

!    total energy              =     -34.68677276 Ry
     estimated scf accuracy    <          6.0E-10 Ry
     smearing contrib. (-TS)   =      -0.00000000 Ry
     internal energy E=F+TS    =     -34.68677276 Ry

     The total energy is F=E-TS. E is the sum of the following terms:
     one-electron contribution =     -69.01547996 Ry
     hartree contribution      =      36.01729772 Ry
     xc contribution           =      -8.67819269 Ry
     ewald contribution        =       7.01539588 Ry
     solvation energy (RISM)   =      -0.02579371 Ry

     convergence has been achieved in  19 iterations

     negative rho (up, down):  6.510E-03 0.000E+00

     Forces acting on atoms (cartesian axes, Ry/au):

     atom    1 type  1   force =    -0.00549331   -0.00549328    0.01204276
     atom    2 type  2   force =    -0.00066772   -0.00066782    0.00106908
     atom    3 type  2   force =     0.00616103    0.00616110   -0.01312010

     Total force =     0.021342     Total SCF correction =     0.000024

     Writing all to output data dir ./output/opt.save/ :
     XML data file, charge density, RISM restart, pseudopotentials, RISM molfiles, collected wavefunctions
 
     init_run     :    242.42s CPU    245.77s WALL (       1 calls)
     electrons    :   1442.76s CPU   1464.78s WALL (       1 calls)
     forces       :      0.75s CPU      0.83s WALL (       1 calls)

     Called by init_run:
     wfcinit      :      0.01s CPU      0.03s WALL (       1 calls)
     potinit      :    241.02s CPU    244.21s WALL (       1 calls)
     hinit0       :      0.29s CPU      0.31s WALL (       1 calls)

     Called by electrons:
     c_bands      :      1.47s CPU      1.62s WALL (      19 calls)
     sum_band     :      3.54s CPU      5.33s WALL (      19 calls)
     v_of_rho     :      3.07s CPU      3.38s WALL (      20 calls)
     newd         :      2.49s CPU      4.13s WALL (      20 calls)
     mix_rho      :      0.81s CPU      0.91s WALL (      19 calls)

     Called by c_bands:
     init_us_2    :      0.04s CPU      0.04s WALL (      39 calls)
     regterg      :      1.36s CPU      1.50s WALL (      19 calls)

     Called by *egterg:
     rdiaghg      :      0.01s CPU      0.01s WALL (      96 calls)
     h_psi        :      1.25s CPU      1.41s WALL (      97 calls)
     s_psi        :      0.01s CPU      0.01s WALL (      97 calls)
     g_psi        :      0.00s CPU      0.00s WALL (      77 calls)

     Called by h_psi:
     h_psi:calbec :      0.04s CPU      0.04s WALL (      97 calls)
     vloc_psi     :      1.20s CPU      1.34s WALL (      97 calls)
     add_vuspsi   :      0.01s CPU      0.02s WALL (      97 calls)

     General routines
     calbec       :      0.11s CPU      0.11s WALL (     120 calls)
     fft          :      3.33s CPU      3.92s WALL (     288 calls)
     ffts         :      0.13s CPU      0.15s WALL (      39 calls)
     fftw         :      0.88s CPU      0.99s WALL (     560 calls)
     interpolate  :      0.35s CPU      0.38s WALL (      20 calls)
 
     Parallel routines
     fft_scatt_xy :     17.25s CPU     18.85s WALL (   22762 calls)
     fft_scatt_yz :     52.39s CPU     61.42s WALL (   22762 calls)

     RISM routines
     1DRISM_pre   :      0.00s CPU      0.00s WALL (       1 calls)
     1DRISM_run   :     51.21s CPU     64.09s WALL (       1 calls)
     3DRISM_pre   :      8.56s CPU      8.67s WALL (       1 calls)
     3DRISM_run   :   1662.53s CPU   1683.46s WALL (      20 calls)
     3DRISM_for   :      0.14s CPU      0.14s WALL (       1 calls)
     3DRISM_vsol  :      0.30s CPU      0.35s WALL (      20 calls)
 
     PWSCF        :  29m 4.48s CPU  29m53.45s WALL

 
   This run was terminated on:   3:34:26   9Jun2024            

=------------------------------------------------------------------------------=
   JOB DONE.
=------------------------------------------------------------------------------=
