
     Program PWSCF v.7.3.1 starts on  9Jun2024 at  9:48:26 

     This program is part of the open-source Quantum ESPRESSO suite
     for quantum simulation of materials; please cite
         "P. Giannozzi et al., J. Phys.:Condens. Matter 21 395502 (2009);
         "P. Giannozzi et al., J. Phys.:Condens. Matter 29 465901 (2017);
         "P. Giannozzi et al., J. Chem. Phys. 152 154105 (2020);
          URL http://www.quantum-espresso.org", 
     in publications or presentations arising from this work. More details at
     http://www.quantum-espresso.org/quote

     Parallel version (MPI), running on    32 processors

     MPI processes distributed on     1 nodes
     182699 MiB available memory on the printing compute node when the environment starts
 
     Reading input from espresso.pwi

     Current dimensions of program PWSCF are:
     Max number of different atomic species (ntypx) = 10
     Max number of k-points (npk) =  40000
     Max angular momentum in pseudopotentials (lmaxx) =  4
     Message from routine iosys_1drism:
     default density from MOL file(H2O.tip5p.Nishihara.MOL) is used

     gamma-point specific algorithms are used
 
     R & G space division:  proc/nbgrp/npool/nimage =      32
     Subspace diagonalization in iterative solution of the eigenvalue problem:
     a serial algorithm will be used


     Molecule # 1 for H2O read from file:
     /beegfs/hotpool/mano/rism/RISM_example/pseudo/H2O.tip5p.Nishihara.MOL
     Density:
         0.26741624E+03 cell^-1
         0.49533751E-02 bohr^-3
         0.55506881E+02 mol/L
         0.99997200E+00 g/cm^3
     Permittivity:
        78.500000
     Number of atoms:   5
     Atoms:
       #  atom      X (angs)      Y (angs)      Z (angs)      Q (e)         E (kcal/mol)  S (angs)
       1  O/h2o     0.00000000   -0.06556000    0.00000000    0.00000000    0.16000000    3.12000000
       2  H/h2o     0.75695000    0.52032000    0.00000000    0.24100000    0.04600000    1.00000000
       3  H/h2o    -0.75695000    0.52032000    0.00000000    0.24100000    0.04600000    1.00000000
       4  L/h2o     0.00000000   -0.46971000    0.57154000   -0.24100000    0.04600000    1.80000000
       5  L/h2o     0.00000000   -0.46971000   -0.57154000   -0.24100000    0.04600000    1.80000000


     Molecule # 2 for K+ read from file:
     /beegfs/hotpool/mano/rism/RISM_example/pseudo/K+.Hagiwara.MOL
     Density:
         0.48177133E+01 cell^-1
         0.89238937E-04 bohr^-3
         0.10000000E+01 mol/L
         0.39098300E-01 g/cm^3
     Number of atoms:   1
     Atoms:
       #  atom      X (angs)      Y (angs)      Z (angs)      Q (e)         E (kcal/mol)  S (angs)
       1  K         0.00000000    0.00000000    0.00000000    1.00000000    0.00032800    4.93462800


     Molecule # 3 for OH- read from file:
     /beegfs/hotpool/mano/rism/RISM_example/pseudo/OH-.oplsaa.MOL
     Density:
         0.48177133E+01 cell^-1
         0.89238937E-04 bohr^-3
         0.10000000E+01 mol/L
         0.17007340E-01 g/cm^3
     Number of atoms:   2
     Atoms:
       #  atom      X (angs)      Y (angs)      Z (angs)      Q (e)         E (kcal/mol)  S (angs)
       1  O/oh      0.00000000    0.00000000    0.00000000   -1.30000000    0.25000000    3.20000000
       2  H/oh      0.95300000    0.00000000    0.00000000    0.30000000    0.04600000    1.00000000


     1D-RISM info
     ------------
     closure equation        =           KH
     temperature             =     300.0000  kelvin
     coulomb smearing radius =       2.0000  bohr
     number of solvent sites =            8
     number of grids         =         5973
     maximum of R-space      =     999.8326  bohr
     maximum of G-space      =      18.7632  bohr^-1
     number of iterations    =        15000
     convergence threshold   =      1.0E-08
     Gaussian width of bonds =       0.3162  bohr
     size of MDIIS           =           20
     step of MDIIS           =       0.2000
     number of processes     =           32


     1D-RISM Calculation

     iter. #     1  RMS(g-h-1)= 7.798E-04  nbox=  0  T= 2400.00K
     iter. #   101  RMS(g-h-1)= 1.222E-06  nbox= 20  T= 1600.00K
     iter. #   201  RMS(g-h-1)= 3.438E-06  nbox= 20  T=  711.11K
     iter. #   301  RMS(g-h-1)= 2.056E-06  nbox= 20  T=  474.07K
     iter. #   401  RMS(g-h-1)= 1.763E-06  nbox= 20  T=  316.05K
     iter. #   501  RMS(g-h-1)= 4.735E-07  nbox= 20  T=  300.00K
     iter. #   601  RMS(g-h-1)= 1.657E-07  nbox= 20  T=  300.00K
     iter. #   701  RMS(g-h-1)= 1.104E-07  nbox= 20  T=  300.00K
     iter. #   801  RMS(g-h-1)= 9.032E-08  nbox= 20  T=  300.00K
     iter. #   901  RMS(g-h-1)= 7.143E-08  nbox= 20  T=  300.00K
     iter. #  1001  RMS(g-h-1)= 6.179E-08  nbox= 20  T=  300.00K
     iter. #  1101  RMS(g-h-1)= 5.327E-08  nbox= 20  T=  300.00K
     iter. #  1201  RMS(g-h-1)= 4.801E-08  nbox= 20  T=  300.00K
     iter. #  1301  RMS(g-h-1)= 4.365E-08  nbox= 20  T=  300.00K
     iter. #  1401  RMS(g-h-1)= 3.851E-08  nbox= 20  T=  300.00K
     iter. #  1501  RMS(g-h-1)= 3.354E-08  nbox= 20  T=  300.00K
     iter. #  1601  RMS(g-h-1)= 3.242E-08  nbox= 20  T=  300.00K
     iter. #  1701  RMS(g-h-1)= 3.257E-08  nbox= 20  T=  300.00K
     iter. #  1801  RMS(g-h-1)= 3.202E-08  nbox= 20  T=  300.00K
     iter. #  1901  RMS(g-h-1)= 3.140E-08  nbox= 20  T=  300.00K
     iter. #  2001  RMS(g-h-1)= 3.103E-08  nbox= 20  T=  300.00K
     iter. #  2101  RMS(g-h-1)= 3.002E-08  nbox= 20  T=  300.00K
     iter. #  2201  RMS(g-h-1)= 2.905E-08  nbox= 20  T=  300.00K
     iter. #  2301  RMS(g-h-1)= 2.778E-08  nbox= 20  T=  300.00K
     iter. #  2401  RMS(g-h-1)= 2.679E-08  nbox= 20  T=  300.00K
     iter. #  2501  RMS(g-h-1)= 2.575E-08  nbox= 20  T=  300.00K
     iter. #  2601  RMS(g-h-1)= 2.414E-08  nbox= 20  T=  300.00K
     iter. #  2701  RMS(g-h-1)= 2.261E-08  nbox= 20  T=  300.00K
     iter. #  2801  RMS(g-h-1)= 2.036E-08  nbox= 20  T=  300.00K
     iter. #  2901  RMS(g-h-1)= 1.928E-08  nbox= 20  T=  300.00K
     iter. #  3001  RMS(g-h-1)= 1.846E-08  nbox= 20  T=  300.00K
     iter. #  3101  RMS(g-h-1)= 1.770E-08  nbox= 20  T=  300.00K
     iter. #  3201  RMS(g-h-1)= 1.694E-08  nbox= 20  T=  300.00K
     iter. #  3301  RMS(g-h-1)= 1.611E-08  nbox= 20  T=  300.00K
     iter. #  3401  RMS(g-h-1)= 1.540E-08  nbox= 20  T=  300.00K
     iter. #  3501  RMS(g-h-1)= 1.439E-08  nbox= 20  T=  300.00K
     iter. #  3601  RMS(g-h-1)= 1.361E-08  nbox= 20  T=  300.00K
     iter. #  3701  RMS(g-h-1)= 1.289E-08  nbox= 20  T=  300.00K
     iter. #  3801  RMS(g-h-1)= 1.230E-08  nbox= 20  T=  300.00K
     iter. #  3901  RMS(g-h-1)= 1.185E-08  nbox= 20  T=  300.00K
     iter. #  4001  RMS(g-h-1)= 1.140E-08  nbox= 20  T=  300.00K
     iter. #  4101  RMS(g-h-1)= 1.087E-08  nbox= 20  T=  300.00K
     iter. #  4201  RMS(g-h-1)= 1.038E-08  nbox= 20  T=  300.00K
     iter. #  4284  RMS(g-h-1)= 9.990E-09  nbox= 20  T=  300.00K

     End of 1D-RISM calculation


     convergence has been achieved in  4284 iterations


     Chemical potential of solvation

     H2O        H2O        Closure      0.144018E+01 kcal/mol
                           GaussFluct  -0.702227E+01 kcal/mol

                K+         Closure     -0.280526E+00 kcal/mol
                           GaussFluct  -0.350066E+00 kcal/mol

                OH-        Closure     -0.749876E+00 kcal/mol
                           GaussFluct  -0.841417E+00 kcal/mol

                Total      Closure      0.409778E+00 kcal/mol
                           GaussFluct  -0.821376E+01 kcal/mol

     K+         H2O        Closure     -0.155711E+02 kcal/mol
                           GaussFluct  -0.194311E+02 kcal/mol

                K+         Closure      0.351545E+06 kcal/mol
                           GaussFluct   0.351545E+06 kcal/mol

                OH-        Closure     -0.351595E+06 kcal/mol
                           GaussFluct  -0.351595E+06 kcal/mol

                Total      Closure     -0.662661E+02 kcal/mol
                           GaussFluct  -0.701841E+02 kcal/mol

     OH-        H2O        Closure     -0.416233E+02 kcal/mol
                           GaussFluct  -0.467044E+02 kcal/mol

                K+         Closure     -0.351595E+06 kcal/mol
                           GaussFluct  -0.351595E+06 kcal/mol

                OH-        Closure      0.351544E+06 kcal/mol
                           GaussFluct   0.351544E+06 kcal/mol

                Total      Closure     -0.925525E+02 kcal/mol
                           GaussFluct  -0.977562E+02 kcal/mol

 
     Parallelization info
     --------------------
     sticks:   dense  smooth     PW     G-vecs:    dense   smooth      PW
     Min        1136     568    140               163104    57672    7192
     Max        1139     570    142               163114    57682    7206
     Sum       36381   18197   4537              5219483  1845573  230389
 
     Using Slab Decomposition
 


     bravais-lattice index     =            0
     lattice parameter (alat)  =      37.7945  a.u.
     unit-cell volume          =   53986.6731 (a.u.)^3
     number of atoms/cell      =            4
     number of atomic types    =            2
     number of electrons       =         8.00
     number of Kohn-Sham states=            8
     kinetic-energy cutoff     =      40.0000  Ry
     charge density cutoff     =     320.0000  Ry
     scf convergence threshold =      1.0E-08
     mixing beta               =       0.1000
     number of iterations used =            8  plain     mixing
     Exchange-correlation=  SLA  PW   PBX  PBC
                           (   1   4   3   4   0   0   0)

     Effective Screening Medium Method
     =================================
     Boundary Conditions: Vacuum-Slab-Vacuum
     total charge in unit cell        =   1.0000
     grid points for fit at edges     =        4 
 

     celldm(1)=  37.794522  celldm(2)=   0.000000  celldm(3)=   0.000000
     celldm(4)=   0.000000  celldm(5)=   0.000000  celldm(6)=   0.000000

     crystal axes: (cart. coord. in units of alat)
               a(1) = (   1.000000   0.000000   0.000000 )  
               a(2) = (   0.000000   1.000000   0.000000 )  
               a(3) = (   0.000000   0.000000   1.000000 )  

     reciprocal axes: (cart. coord. in units 2 pi/alat)
               b(1) = (  1.000000  0.000000  0.000000 )  
               b(2) = (  0.000000  1.000000  0.000000 )  
               b(3) = (  0.000000  0.000000  1.000000 )  


     PseudoPot. # 1 for O  read from file:
     /beegfs/hotpool/mano/rism/RISM_example/pseudo/o_pbe_v1.2.uspp.F.UPF
     MD5 check sum: 734c27235a0248c51dbae37a1fbe46ec
     Pseudo is Ultrasoft + core correction, Zval =  6.0
     Generated by new atomic code, or converted to UPF format
     Using radial grid of  737 points,  5 beta functions with: 
                l(1) =   0
                l(2) =   0
                l(3) =   1
                l(4) =   1
                l(5) =   2
     Q(r) pseudized with  8 coefficients,  rinner =    0.900   0.900   0.900
                                                       0.900   0.900

     PseudoPot. # 2 for H  read from file:
     /beegfs/hotpool/mano/rism/RISM_example/pseudo/h_pbe_v1.4.uspp.F.UPF
     MD5 check sum: 761ae9a214b05c3daf00ab9f6b793d6f
     Pseudo is Ultrasoft, Zval =  1.0
     Generated by new atomic code, or converted to UPF format
     Using radial grid of  615 points,  2 beta functions with: 
                l(1) =   0
                l(2) =   0
     Q(r) pseudized with  8 coefficients,  rinner =    0.700

     atomic species   valence    mass     pseudopotential
     O                 6.00    15.99900     O ( 1.00)
     H                 1.00     1.00800     H ( 1.00)

     No symmetry found



   Cartesian axes

     site n.     atom                  positions (alat units)
         1        O      tau(   1) = (   0.0167622  -0.0015487  -0.0000006  )
         2        H      tau(   2) = (   0.0218434   0.0278652   0.0406100  )
         3        H      tau(   3) = (   0.0218432   0.0278646  -0.0406092  )
         4        H      tau(   4) = (  -0.0304489  -0.0191811   0.0005002  )

     number of k points=     1  Gaussian smearing, width (Ry)=  0.0100
                       cart. coord. in units 2pi/alat
        k(    1) = (   0.0000000   0.0000000   0.0000000), wk =   2.0000000

     Dense  grid:  2609742 G-vectors     FFT dimensions: ( 216, 216, 216)

     Smooth grid:   922787 G-vectors     FFT dimensions: ( 160, 160, 160)

     Estimated max dynamical RAM per process >     203.20 MB

     Estimated total dynamical RAM >       6.35 GB

     Solute:
       # atom     E (kcal/mol)  S (angs)
       1  O       0.15540000    3.16600000    given
       2  H       0.04600000    1.00000000    given
       3  H       0.04600000    1.00000000    given
       4  H       0.04600000    1.00000000    given


     Laue-RISM info
     --------------
     closure equation        =           KH
     temperature             =     300.0000  kelvin
     coulomb smearing radius =       2.0000  bohr
     number of solvent sites =            6
     solvent sites           =    O/h2o   H/h2o   L/h2o       K
     solvent sites           =     O/oh    H/oh
     number of iterations    =        15000
     convergence threshold   =      1.0E-06
     convergence level       =       0.8000
     size of MDIIS           =           20
     step of MDIIS           =       0.1000
     solvent cutoff          =     160.0000  Ry
     Custom grid:   922787 G-vectors     FFT dimensions: ( 160, 160, 160)

     Boundary Conditions        : Solvent-Slab-Solvent
     unit-cell (in bohr)        : [ -18.897261  18.897261]
     expand-cell (in bohr)      : [ -79.840927  79.604712]
     solvent of left (in bohr)  : [ -79.840927   0.000000]
     solvent of right (in bohr) : [   0.000000  79.604712]
     reference of potential     : average of both sides
     #grids to fit at edges of unit-cell =    4
     Laue grid:     9099 Gxy-vectors     FFT dimensions: ( 160, 160, 675)


     Initial potential from superposition of free atoms

     starting charge       9.0000, renormalised to       8.0000

     negative rho (up, down):  7.465E-04 0.000E+00

     Laue-RISM Calculation

     convergence threshold    = 6.310E-06
     iter. #     1  RMS(g-h-1)= 1.089E-01  nbox=  0
     iter. #    11  RMS(g-h-1)= 1.051E-02  nbox= 10
     iter. #    21  RMS(g-h-1)= 5.608E-03  nbox= 20
     iter. #    31  RMS(g-h-1)= 2.015E-03  nbox= 20
     iter. #    41  RMS(g-h-1)= 1.269E-03  nbox= 20
     iter. #    51  RMS(g-h-1)= 8.224E-04  nbox= 20
     iter. #    61  RMS(g-h-1)= 6.214E-04  nbox= 20
     iter. #    71  RMS(g-h-1)= 5.543E-04  nbox= 20
     iter. #    81  RMS(g-h-1)= 4.467E-04  nbox=  6
     iter. #    91  RMS(g-h-1)= 2.839E-04  nbox= 16
     iter. #   101  RMS(g-h-1)= 2.017E-04  nbox= 20
     iter. #   111  RMS(g-h-1)= 1.540E-04  nbox= 20
     iter. #   121  RMS(g-h-1)= 1.359E-04  nbox= 20
     iter. #   131  RMS(g-h-1)= 1.021E-04  nbox= 20
     iter. #   141  RMS(g-h-1)= 8.848E-05  nbox= 20
     iter. #   151  RMS(g-h-1)= 6.917E-05  nbox= 20
     iter. #   161  RMS(g-h-1)= 4.847E-05  nbox= 20
     iter. #   171  RMS(g-h-1)= 3.907E-05  nbox= 20
     iter. #   181  RMS(g-h-1)= 2.871E-05  nbox= 20
     iter. #   191  RMS(g-h-1)= 2.493E-05  nbox= 20
     iter. #   201  RMS(g-h-1)= 2.127E-05  nbox= 20
     iter. #   211  RMS(g-h-1)= 1.746E-05  nbox= 20
     iter. #   221  RMS(g-h-1)= 1.377E-05  nbox= 20
     iter. #   231  RMS(g-h-1)= 1.215E-05  nbox= 20
     iter. #   241  RMS(g-h-1)= 1.066E-05  nbox= 11
     iter. #   251  RMS(g-h-1)= 9.251E-06  nbox=  5
     iter. #   261  RMS(g-h-1)= 8.030E-06  nbox= 15
     iter. #   271  RMS(g-h-1)= 7.257E-06  nbox=  9
     iter. #   281  RMS(g-h-1)= 6.614E-06  nbox=  3
     iter. #   286  RMS(g-h-1)= 6.308E-06  nbox=  8

     End of Laue-RISM calculation


     convergence has been achieved in   286 iterations


     solvent charge   -1.00067, renormalised to   -1.00000

     Total number of solvent (in expand-cell)
     H2O         1129.254543
     K+            20.053103
     OH-           21.053621

     Total charge of solvent (in expand-cell)
     H2O           -0.000454 e
     K+            20.053103 e
     OH-          -21.053320 e
     Total         -1.000671 e

     Chemical potential of solvation (in expand-cell)
     H2O        GaussFluct  -0.371656E+02 kcal/mol
     K+         GaussFluct  -0.224088E+04 kcal/mol
     OH-        GaussFluct   0.222387E+04 kcal/mol
     Total      GaussFluct  -0.541780E+02 kcal/mol

     Starting wfcs are    7 randomized atomic wfcs +    1 random wfcs

     total cpu time spent up to now is      319.7 secs

     Self-consistent Calculation

     iteration #  1     ecut=    40.00 Ry     beta= 0.10
     Davidson diagonalization with overlap
     ethr =  1.00E-02,  avg # of iterations =  5.0

     negative rho (up, down):  1.158E-03 0.000E+00

     Laue-RISM Calculation

     convergence threshold    = 6.310E-06
     iter. #     1  RMS(g-h-1)= 5.664E-03  nbox=  0
     iter. #    11  RMS(g-h-1)= 7.320E-04  nbox= 10
     iter. #    21  RMS(g-h-1)= 2.721E-04  nbox= 20
     iter. #    31  RMS(g-h-1)= 1.654E-04  nbox= 20
     iter. #    41  RMS(g-h-1)= 1.050E-04  nbox= 20
     iter. #    51  RMS(g-h-1)= 9.723E-05  nbox= 20
     iter. #    61  RMS(g-h-1)= 8.506E-05  nbox=  2
     iter. #    71  RMS(g-h-1)= 5.958E-05  nbox= 12
     iter. #    81  RMS(g-h-1)= 4.048E-05  nbox= 20
     iter. #    91  RMS(g-h-1)= 2.666E-05  nbox= 20
     iter. #   101  RMS(g-h-1)= 1.723E-05  nbox= 20
     iter. #   111  RMS(g-h-1)= 1.342E-05  nbox= 20
     iter. #   121  RMS(g-h-1)= 1.032E-05  nbox= 20
     iter. #   131  RMS(g-h-1)= 8.655E-06  nbox= 20
     iter. #   141  RMS(g-h-1)= 7.469E-06  nbox=  8
     iter. #   151  RMS(g-h-1)= 6.454E-06  nbox=  2
     iter. #   152  RMS(g-h-1)= 6.287E-06  nbox=  3

     End of Laue-RISM calculation


     convergence has been achieved in   152 iterations


     solvent charge   -1.00160, renormalised to   -1.00000

     Total number of solvent (in expand-cell)
     H2O         1129.259915
     K+            20.054728
     OH-           21.055623

     Total charge of solvent (in expand-cell)
     H2O           -0.000423 e
     K+            20.054728 e
     OH-          -21.055907 e
     Total         -1.001603 e

     Chemical potential of solvation (in expand-cell)
     H2O        GaussFluct  -0.373700E+02 kcal/mol
     K+         GaussFluct  -0.224091E+04 kcal/mol
     OH-        GaussFluct   0.222370E+04 kcal/mol
     Total      GaussFluct  -0.545859E+02 kcal/mol


     total cpu time spent up to now is      452.6 secs

     total energy              =     -35.96420302 Ry
     estimated scf accuracy    <       2.24468686 Ry

     iteration #  2     ecut=    40.00 Ry     beta= 0.10
     Davidson diagonalization with overlap
     ethr =  1.00E-02,  avg # of iterations =  1.0

     negative rho (up, down):  4.126E-03 0.000E+00

     Laue-RISM Calculation

     convergence threshold    = 6.310E-06
     iter. #     1  RMS(g-h-1)= 2.052E-02  nbox=  0
     iter. #    11  RMS(g-h-1)= 2.933E-03  nbox= 10
     iter. #    21  RMS(g-h-1)= 1.433E-03  nbox= 20
     iter. #    31  RMS(g-h-1)= 7.272E-04  nbox= 20
     iter. #    41  RMS(g-h-1)= 5.088E-04  nbox= 20
     iter. #    51  RMS(g-h-1)= 4.135E-04  nbox= 20
     iter. #    61  RMS(g-h-1)= 3.633E-04  nbox= 20
     iter. #    71  RMS(g-h-1)= 2.957E-04  nbox= 11
     iter. #    81  RMS(g-h-1)= 2.060E-04  nbox= 20
     iter. #    91  RMS(g-h-1)= 1.538E-04  nbox= 20
     iter. #   101  RMS(g-h-1)= 1.237E-04  nbox= 20
     iter. #   111  RMS(g-h-1)= 8.519E-05  nbox= 20
     iter. #   121  RMS(g-h-1)= 6.761E-05  nbox= 20
     iter. #   131  RMS(g-h-1)= 5.204E-05  nbox= 20
     iter. #   141  RMS(g-h-1)= 4.064E-05  nbox= 20
     iter. #   151  RMS(g-h-1)= 3.252E-05  nbox= 20
     iter. #   161  RMS(g-h-1)= 2.616E-05  nbox= 20
     iter. #   171  RMS(g-h-1)= 2.204E-05  nbox= 20
     iter. #   181  RMS(g-h-1)= 1.956E-05  nbox= 20
     iter. #   191  RMS(g-h-1)= 1.763E-05  nbox=  6
     iter. #   201  RMS(g-h-1)= 1.431E-05  nbox= 16
     iter. #   211  RMS(g-h-1)= 1.092E-05  nbox= 10
     iter. #   221  RMS(g-h-1)= 8.637E-06  nbox=  2
     iter. #   231  RMS(g-h-1)= 7.288E-06  nbox= 12
     iter. #   241  RMS(g-h-1)= 6.626E-06  nbox=  6
     iter. #   247  RMS(g-h-1)= 6.286E-06  nbox= 12

     End of Laue-RISM calculation


     convergence has been achieved in   247 iterations


     solvent charge   -1.00050, renormalised to   -1.00000

     Total number of solvent (in expand-cell)
     H2O         1129.397507
     K+            20.066024
     OH-           21.065963

     Total charge of solvent (in expand-cell)
     H2O           -0.000419 e
     K+            20.066024 e
     OH-          -21.066102 e
     Total         -1.000498 e

     Chemical potential of solvation (in expand-cell)
     H2O        GaussFluct  -0.393268E+02 kcal/mol
     K+         GaussFluct  -0.224104E+04 kcal/mol
     OH-        GaussFluct   0.222199E+04 kcal/mol
     Total      GaussFluct  -0.583748E+02 kcal/mol


     total cpu time spent up to now is      660.9 secs

     total energy              =     -35.20555675 Ry
     estimated scf accuracy    <       1.38264958 Ry

     iteration #  3     ecut=    40.00 Ry     beta= 0.10
     Davidson diagonalization with overlap
     ethr =  1.00E-02,  avg # of iterations =  2.0

     negative rho (up, down):  3.883E-03 0.000E+00

     Laue-RISM Calculation

     convergence threshold    = 6.310E-06
     iter. #     1  RMS(g-h-1)= 5.059E-03  nbox=  0
     iter. #    11  RMS(g-h-1)= 5.713E-04  nbox= 10
     iter. #    21  RMS(g-h-1)= 2.382E-04  nbox= 20
     iter. #    31  RMS(g-h-1)= 1.245E-04  nbox= 20
     iter. #    41  RMS(g-h-1)= 8.283E-05  nbox= 20
     iter. #    51  RMS(g-h-1)= 7.418E-05  nbox= 20
     iter. #    61  RMS(g-h-1)= 6.319E-05  nbox=  5
     iter. #    71  RMS(g-h-1)= 4.625E-05  nbox= 15
     iter. #    81  RMS(g-h-1)= 2.812E-05  nbox= 20
     iter. #    91  RMS(g-h-1)= 2.197E-05  nbox= 20
     iter. #   101  RMS(g-h-1)= 1.576E-05  nbox= 20
     iter. #   111  RMS(g-h-1)= 1.114E-05  nbox= 20
     iter. #   121  RMS(g-h-1)= 9.066E-06  nbox= 20
     iter. #   131  RMS(g-h-1)= 8.040E-06  nbox= 20
     iter. #   141  RMS(g-h-1)= 7.570E-06  nbox=  2
     iter. #   149  RMS(g-h-1)= 6.277E-06  nbox= 10

     End of Laue-RISM calculation


     convergence has been achieved in   149 iterations


     solvent charge   -1.00029, renormalised to   -1.00000

     Total number of solvent (in expand-cell)
     H2O         1129.315503
     K+            20.067158
     OH-           21.067669

     Total charge of solvent (in expand-cell)
     H2O           -0.000418 e
     K+            20.067158 e
     OH-          -21.067028 e
     Total         -1.000288 e

     Chemical potential of solvation (in expand-cell)
     H2O        GaussFluct  -0.383413E+02 kcal/mol
     K+         GaussFluct  -0.224104E+04 kcal/mol
     OH-        GaussFluct   0.222235E+04 kcal/mol
     Total      GaussFluct  -0.570309E+02 kcal/mol


     total cpu time spent up to now is      792.0 secs

     total energy              =     -35.50868792 Ry
     estimated scf accuracy    <       0.07064250 Ry

     iteration #  4     ecut=    40.00 Ry     beta= 0.10
     Davidson diagonalization with overlap
     ethr =  8.83E-04,  avg # of iterations =  2.0

     negative rho (up, down):  8.537E-03 0.000E+00

     Laue-RISM Calculation

     convergence threshold    = 6.310E-06
     iter. #     1  RMS(g-h-1)= 8.820E-03  nbox=  0
     iter. #    11  RMS(g-h-1)= 1.428E-03  nbox= 10
     iter. #    21  RMS(g-h-1)= 5.834E-04  nbox= 20
     iter. #    31  RMS(g-h-1)= 3.618E-04  nbox= 20
     iter. #    41  RMS(g-h-1)= 2.465E-04  nbox= 20
     iter. #    51  RMS(g-h-1)= 1.927E-04  nbox= 20
     iter. #    61  RMS(g-h-1)= 1.812E-04  nbox= 20
     iter. #    71  RMS(g-h-1)= 1.605E-04  nbox=  7
     iter. #    81  RMS(g-h-1)= 1.052E-04  nbox= 17
     iter. #    91  RMS(g-h-1)= 7.355E-05  nbox= 20
     iter. #   101  RMS(g-h-1)= 4.730E-05  nbox= 20
     iter. #   111  RMS(g-h-1)= 3.752E-05  nbox= 20
     iter. #   121  RMS(g-h-1)= 3.186E-05  nbox= 20
     iter. #   131  RMS(g-h-1)= 2.644E-05  nbox= 20
     iter. #   141  RMS(g-h-1)= 1.987E-05  nbox=  8
     iter. #   151  RMS(g-h-1)= 1.140E-05  nbox= 18
     iter. #   161  RMS(g-h-1)= 9.077E-06  nbox= 20
     iter. #   171  RMS(g-h-1)= 7.878E-06  nbox=  6
     iter. #   181  RMS(g-h-1)= 6.504E-06  nbox= 16
     iter. #   184  RMS(g-h-1)= 6.180E-06  nbox=  3

     End of Laue-RISM calculation


     convergence has been achieved in   184 iterations


     solvent charge   -1.00240, renormalised to   -1.00000

     Total number of solvent (in expand-cell)
     H2O         1129.412675
     K+            20.082515
     OH-           21.083874

     Total charge of solvent (in expand-cell)
     H2O           -0.000488 e
     K+            20.082515 e
     OH-          -21.084426 e
     Total         -1.002399 e

     Chemical potential of solvation (in expand-cell)
     H2O        GaussFluct  -0.393950E+02 kcal/mol
     K+         GaussFluct  -0.224114E+04 kcal/mol
     OH-        GaussFluct   0.222086E+04 kcal/mol
     Total      GaussFluct  -0.596683E+02 kcal/mol


     total cpu time spent up to now is      950.0 secs

     total energy              =     -35.49152631 Ry
     estimated scf accuracy    <       0.13596512 Ry

     iteration #  5     ecut=    40.00 Ry     beta= 0.10
     Davidson diagonalization with overlap
     ethr =  8.83E-04,  avg # of iterations =  8.0

     negative rho (up, down):  8.318E-03 0.000E+00

     Laue-RISM Calculation

     convergence threshold    = 4.212E-06
     iter. #     1  RMS(g-h-1)= 1.692E-03  nbox=  0
     iter. #    11  RMS(g-h-1)= 2.085E-04  nbox= 10
     iter. #    21  RMS(g-h-1)= 7.614E-05  nbox= 20
     iter. #    31  RMS(g-h-1)= 4.695E-05  nbox= 20
     iter. #    41  RMS(g-h-1)= 3.174E-05  nbox= 20
     iter. #    51  RMS(g-h-1)= 2.920E-05  nbox= 20
     iter. #    61  RMS(g-h-1)= 2.492E-05  nbox=  8
     iter. #    71  RMS(g-h-1)= 1.487E-05  nbox= 18
     iter. #    81  RMS(g-h-1)= 1.041E-05  nbox= 20
     iter. #    91  RMS(g-h-1)= 9.012E-06  nbox= 20
     iter. #   101  RMS(g-h-1)= 6.788E-06  nbox= 20
     iter. #   111  RMS(g-h-1)= 5.471E-06  nbox= 20
     iter. #   121  RMS(g-h-1)= 5.011E-06  nbox=  4
     iter. #   131  RMS(g-h-1)= 4.683E-06  nbox= 14
     iter. #   141  RMS(g-h-1)= 4.457E-06  nbox=  8
     iter. #   149  RMS(g-h-1)= 4.211E-06  nbox= 16

     End of Laue-RISM calculation


     convergence has been achieved in   149 iterations


     solvent charge   -1.00088, renormalised to   -1.00000

     Total number of solvent (in expand-cell)
     H2O         1129.448091
     K+            20.084829
     OH-           21.085141

     Total charge of solvent (in expand-cell)
     H2O           -0.000391 e
     K+            20.084829 e
     OH-          -21.085320 e
     Total         -1.000882 e

     Chemical potential of solvation (in expand-cell)
     H2O        GaussFluct  -0.397851E+02 kcal/mol
     K+         GaussFluct  -0.224116E+04 kcal/mol
     OH-        GaussFluct   0.222054E+04 kcal/mol
     Total      GaussFluct  -0.604009E+02 kcal/mol


     total cpu time spent up to now is     1079.0 secs

     total energy              =     -35.49918397 Ry
     estimated scf accuracy    <       0.00731427 Ry

     iteration #  6     ecut=    40.00 Ry     beta= 0.10
     Davidson diagonalization with overlap
     ethr =  9.14E-05,  avg # of iterations = 12.0

     negative rho (up, down):  7.418E-03 0.000E+00

     Laue-RISM Calculation

     convergence threshold    = 2.654E-06
     iter. #     1  RMS(g-h-1)= 8.332E-04  nbox=  0
     iter. #    11  RMS(g-h-1)= 1.170E-04  nbox= 10
     iter. #    21  RMS(g-h-1)= 4.393E-05  nbox= 20
     iter. #    31  RMS(g-h-1)= 2.750E-05  nbox= 20
     iter. #    41  RMS(g-h-1)= 1.912E-05  nbox= 20
     iter. #    51  RMS(g-h-1)= 1.704E-05  nbox= 20
     iter. #    61  RMS(g-h-1)= 1.538E-05  nbox= 20
     iter. #    71  RMS(g-h-1)= 1.412E-05  nbox= 20
     iter. #    81  RMS(g-h-1)= 1.110E-05  nbox= 20
     iter. #    91  RMS(g-h-1)= 8.525E-06  nbox= 20
     iter. #   101  RMS(g-h-1)= 6.911E-06  nbox= 20
     iter. #   111  RMS(g-h-1)= 5.861E-06  nbox= 20
     iter. #   121  RMS(g-h-1)= 4.729E-06  nbox= 20
     iter. #   131  RMS(g-h-1)= 4.303E-06  nbox= 20
     iter. #   141  RMS(g-h-1)= 3.973E-06  nbox=  8
     iter. #   151  RMS(g-h-1)= 3.805E-06  nbox=  2
     iter. #   161  RMS(g-h-1)= 3.677E-06  nbox= 12
     iter. #   171  RMS(g-h-1)= 3.567E-06  nbox=  6
     iter. #   181  RMS(g-h-1)= 3.461E-06  nbox= 16
     iter. #   191  RMS(g-h-1)= 3.395E-06  nbox= 10
     iter. #   201  RMS(g-h-1)= 3.305E-06  nbox=  4
     iter. #   211  RMS(g-h-1)= 3.153E-06  nbox= 14
     iter. #   221  RMS(g-h-1)= 3.044E-06  nbox=  8
     iter. #   231  RMS(g-h-1)= 2.962E-06  nbox=  2
     iter. #   241  RMS(g-h-1)= 2.866E-06  nbox= 12
     iter. #   251  RMS(g-h-1)= 2.787E-06  nbox=  6
     iter. #   261  RMS(g-h-1)= 2.711E-06  nbox= 16
     iter. #   269  RMS(g-h-1)= 2.649E-06  nbox=  8

     End of Laue-RISM calculation


     convergence has been achieved in   269 iterations


     solvent charge   -1.00034, renormalised to   -1.00000

     Total number of solvent (in expand-cell)
     H2O         1129.473524
     K+            20.084644
     OH-           21.084558

     Total charge of solvent (in expand-cell)
     H2O           -0.000382 e
     K+            20.084644 e
     OH-          -21.084600 e
     Total         -1.000338 e

     Chemical potential of solvation (in expand-cell)
     H2O        GaussFluct  -0.400862E+02 kcal/mol
     K+         GaussFluct  -0.224115E+04 kcal/mol
     OH-        GaussFluct   0.222044E+04 kcal/mol
     Total      GaussFluct  -0.608047E+02 kcal/mol


     total cpu time spent up to now is     1299.6 secs

     total energy              =     -35.50173813 Ry
     estimated scf accuracy    <       0.00131820 Ry

     iteration #  7     ecut=    40.00 Ry     beta= 0.10
     Davidson diagonalization with overlap
     ethr =  1.65E-05,  avg # of iterations =  6.0

     negative rho (up, down):  7.626E-03 0.000E+00

     Laue-RISM Calculation

     convergence threshold    = 2.083E-06
     iter. #     1  RMS(g-h-1)= 5.850E-04  nbox=  0
     iter. #    11  RMS(g-h-1)= 9.158E-05  nbox= 10
     iter. #    21  RMS(g-h-1)= 3.531E-05  nbox= 20
     iter. #    31  RMS(g-h-1)= 2.281E-05  nbox= 20
     iter. #    41  RMS(g-h-1)= 1.570E-05  nbox= 20
     iter. #    51  RMS(g-h-1)= 1.320E-05  nbox= 20
     iter. #    61  RMS(g-h-1)= 1.121E-05  nbox= 20
     iter. #    71  RMS(g-h-1)= 9.005E-06  nbox= 20
     iter. #    81  RMS(g-h-1)= 7.128E-06  nbox= 20
     iter. #    91  RMS(g-h-1)= 6.006E-06  nbox= 20
     iter. #   101  RMS(g-h-1)= 4.765E-06  nbox=  7
     iter. #   111  RMS(g-h-1)= 3.102E-06  nbox= 17
     iter. #   121  RMS(g-h-1)= 2.727E-06  nbox= 20
     iter. #   131  RMS(g-h-1)= 2.618E-06  nbox=  8
     iter. #   141  RMS(g-h-1)= 2.571E-06  nbox=  2
     iter. #   151  RMS(g-h-1)= 2.522E-06  nbox= 12
     iter. #   161  RMS(g-h-1)= 2.475E-06  nbox=  6
     iter. #   171  RMS(g-h-1)= 2.442E-06  nbox= 16
     iter. #   181  RMS(g-h-1)= 2.396E-06  nbox= 10
     iter. #   191  RMS(g-h-1)= 2.342E-06  nbox=  4
     iter. #   201  RMS(g-h-1)= 2.301E-06  nbox= 14
     iter. #   211  RMS(g-h-1)= 2.274E-06  nbox=  8
     iter. #   221  RMS(g-h-1)= 2.220E-06  nbox=  2
     iter. #   231  RMS(g-h-1)= 2.149E-06  nbox= 12
     iter. #   241  RMS(g-h-1)= 2.098E-06  nbox=  6
     iter. #   244  RMS(g-h-1)= 2.083E-06  nbox=  9

     End of Laue-RISM calculation


     convergence has been achieved in   244 iterations


     solvent charge   -1.00046, renormalised to   -1.00000

     Total number of solvent (in expand-cell)
     H2O         1129.484501
     K+            20.086629
     OH-           21.086697

     Total charge of solvent (in expand-cell)
     H2O           -0.000386 e
     K+            20.086629 e
     OH-          -21.086703 e
     Total         -1.000461 e

     Chemical potential of solvation (in expand-cell)
     H2O        GaussFluct  -0.401974E+02 kcal/mol
     K+         GaussFluct  -0.224116E+04 kcal/mol
     OH-        GaussFluct   0.222027E+04 kcal/mol
     Total      GaussFluct  -0.610868E+02 kcal/mol


     total cpu time spent up to now is     1499.1 secs

     total energy              =     -35.50175784 Ry
     estimated scf accuracy    <       0.00053668 Ry

     iteration #  8     ecut=    40.00 Ry     beta= 0.10
     Davidson diagonalization with overlap
     ethr =  6.71E-06,  avg # of iterations =  4.0

     negative rho (up, down):  7.272E-03 0.000E+00

     Laue-RISM Calculation

     convergence threshold    = 1.185E-06
     iter. #     1  RMS(g-h-1)= 7.793E-05  nbox=  0
     iter. #    11  RMS(g-h-1)= 9.323E-06  nbox= 10
     iter. #    21  RMS(g-h-1)= 4.022E-06  nbox= 20
     iter. #    31  RMS(g-h-1)= 2.972E-06  nbox= 20
     iter. #    41  RMS(g-h-1)= 2.596E-06  nbox= 20
     iter. #    51  RMS(g-h-1)= 2.487E-06  nbox= 20
     iter. #    61  RMS(g-h-1)= 2.256E-06  nbox= 11
     iter. #    71  RMS(g-h-1)= 2.110E-06  nbox=  5
     iter. #    81  RMS(g-h-1)= 2.037E-06  nbox= 15
     iter. #    91  RMS(g-h-1)= 2.009E-06  nbox=  9
     iter. #   101  RMS(g-h-1)= 1.995E-06  nbox=  3
     iter. #   111  RMS(g-h-1)= 1.979E-06  nbox= 13
     iter. #   121  RMS(g-h-1)= 1.944E-06  nbox=  7
     iter. #   131  RMS(g-h-1)= 1.909E-06  nbox= 17
     iter. #   141  RMS(g-h-1)= 1.862E-06  nbox= 11
     iter. #   151  RMS(g-h-1)= 1.808E-06  nbox=  5
     iter. #   161  RMS(g-h-1)= 1.762E-06  nbox= 15
     iter. #   171  RMS(g-h-1)= 1.727E-06  nbox=  9
     iter. #   181  RMS(g-h-1)= 1.695E-06  nbox=  3
     iter. #   191  RMS(g-h-1)= 1.661E-06  nbox= 13
     iter. #   201  RMS(g-h-1)= 1.633E-06  nbox=  7
     iter. #   211  RMS(g-h-1)= 1.607E-06  nbox= 17
     iter. #   221  RMS(g-h-1)= 1.580E-06  nbox= 11
     iter. #   231  RMS(g-h-1)= 1.569E-06  nbox=  5
     iter. #   241  RMS(g-h-1)= 1.557E-06  nbox= 15
     iter. #   251  RMS(g-h-1)= 1.548E-06  nbox=  9
     iter. #   261  RMS(g-h-1)= 1.532E-06  nbox=  3
     iter. #   271  RMS(g-h-1)= 1.503E-06  nbox= 13
     iter. #   281  RMS(g-h-1)= 1.479E-06  nbox=  7
     iter. #   291  RMS(g-h-1)= 1.453E-06  nbox= 17
     iter. #   301  RMS(g-h-1)= 1.410E-06  nbox= 11
     iter. #   311  RMS(g-h-1)= 1.380E-06  nbox=  5
     iter. #   321  RMS(g-h-1)= 1.352E-06  nbox= 15
     iter. #   331  RMS(g-h-1)= 1.335E-06  nbox=  9
     iter. #   341  RMS(g-h-1)= 1.320E-06  nbox=  3
     iter. #   351  RMS(g-h-1)= 1.302E-06  nbox= 13
     iter. #   361  RMS(g-h-1)= 1.286E-06  nbox=  7
     iter. #   371  RMS(g-h-1)= 1.270E-06  nbox= 17
     iter. #   381  RMS(g-h-1)= 1.255E-06  nbox= 11
     iter. #   391  RMS(g-h-1)= 1.238E-06  nbox=  5
     iter. #   401  RMS(g-h-1)= 1.220E-06  nbox= 15
     iter. #   411  RMS(g-h-1)= 1.202E-06  nbox=  9
     iter. #   421  RMS(g-h-1)= 1.188E-06  nbox=  3
     iter. #   424  RMS(g-h-1)= 1.183E-06  nbox=  6

     End of Laue-RISM calculation


     convergence has been achieved in   424 iterations


     solvent charge   -1.00036, renormalised to   -1.00000

     Total number of solvent (in expand-cell)
     H2O         1129.486797
     K+            20.086789
     OH-           21.086763

     Total charge of solvent (in expand-cell)
     H2O           -0.000393 e
     K+            20.086789 e
     OH-          -21.086760 e
     Total         -1.000364 e

     Chemical potential of solvation (in expand-cell)
     H2O        GaussFluct  -0.402228E+02 kcal/mol
     K+         GaussFluct  -0.224116E+04 kcal/mol
     OH-        GaussFluct   0.222026E+04 kcal/mol
     Total      GaussFluct  -0.611298E+02 kcal/mol


     total cpu time spent up to now is     1825.9 secs

     total energy              =     -35.50178422 Ry
     estimated scf accuracy    <       0.00006602 Ry

     iteration #  9     ecut=    40.00 Ry     beta= 0.10
     Davidson diagonalization with overlap
     ethr =  8.25E-07,  avg # of iterations =  6.0

     negative rho (up, down):  6.978E-03 0.000E+00

     Laue-RISM Calculation

     convergence threshold    = 1.316E-06
     iter. #     1  RMS(g-h-1)= 1.235E-04  nbox=  0
     iter. #    11  RMS(g-h-1)= 1.234E-05  nbox= 10
     iter. #    21  RMS(g-h-1)= 4.667E-06  nbox= 20
     iter. #    31  RMS(g-h-1)= 2.640E-06  nbox= 20
     iter. #    41  RMS(g-h-1)= 2.077E-06  nbox= 20
     iter. #    51  RMS(g-h-1)= 1.946E-06  nbox= 20
     iter. #    61  RMS(g-h-1)= 1.529E-06  nbox= 11
     iter. #    71  RMS(g-h-1)= 1.334E-06  nbox=  5
     iter. #    72  RMS(g-h-1)= 1.316E-06  nbox=  6

     End of Laue-RISM calculation


     convergence has been achieved in    72 iterations


     solvent charge   -1.00037, renormalised to   -1.00000

     Total number of solvent (in expand-cell)
     H2O         1129.489798
     K+            20.086893
     OH-           21.087081

     Total charge of solvent (in expand-cell)
     H2O           -0.000398 e
     K+            20.086893 e
     OH-          -21.086868 e
     Total         -1.000372 e

     Chemical potential of solvation (in expand-cell)
     H2O        GaussFluct  -0.402581E+02 kcal/mol
     K+         GaussFluct  -0.224116E+04 kcal/mol
     OH-        GaussFluct   0.222023E+04 kcal/mol
     Total      GaussFluct  -0.611848E+02 kcal/mol


     total cpu time spent up to now is     1892.6 secs

     total energy              =     -35.50174514 Ry
     estimated scf accuracy    <       0.00009767 Ry

     iteration # 10     ecut=    40.00 Ry     beta= 0.10
     Davidson diagonalization with overlap
     ethr =  8.25E-07,  avg # of iterations =  2.0

     negative rho (up, down):  6.735E-03 0.000E+00

     Laue-RISM Calculation

     convergence threshold    = 1.000E-06
     iter. #     1  RMS(g-h-1)= 4.154E-06  nbox=  0
     iter. #    11  RMS(g-h-1)= 1.287E-06  nbox= 10
     iter. #    21  RMS(g-h-1)= 1.195E-06  nbox= 20
     iter. #    31  RMS(g-h-1)= 1.169E-06  nbox=  9
     iter. #    41  RMS(g-h-1)= 1.157E-06  nbox=  3
     iter. #    51  RMS(g-h-1)= 1.145E-06  nbox= 13
     iter. #    61  RMS(g-h-1)= 1.140E-06  nbox=  7
     iter. #    71  RMS(g-h-1)= 1.137E-06  nbox= 17
     iter. #    81  RMS(g-h-1)= 1.135E-06  nbox= 11
     iter. #    91  RMS(g-h-1)= 1.131E-06  nbox=  5
     iter. #   101  RMS(g-h-1)= 1.119E-06  nbox= 15
     iter. #   111  RMS(g-h-1)= 1.108E-06  nbox=  9
     iter. #   121  RMS(g-h-1)= 1.097E-06  nbox=  3
     iter. #   131  RMS(g-h-1)= 1.079E-06  nbox= 13
     iter. #   141  RMS(g-h-1)= 1.069E-06  nbox=  7
     iter. #   151  RMS(g-h-1)= 1.051E-06  nbox= 17
     iter. #   161  RMS(g-h-1)= 1.033E-06  nbox= 11
     iter. #   171  RMS(g-h-1)= 1.020E-06  nbox=  5
     iter. #   181  RMS(g-h-1)= 1.006E-06  nbox= 15
     iter. #   189  RMS(g-h-1)= 9.989E-07  nbox=  7

     End of Laue-RISM calculation


     convergence has been achieved in   189 iterations


     solvent charge   -1.00046, renormalised to   -1.00000

     Total number of solvent (in expand-cell)
     H2O         1129.489688
     K+            20.086898
     OH-           21.086924

     Total charge of solvent (in expand-cell)
     H2O           -0.000389 e
     K+            20.086898 e
     OH-          -21.086969 e
     Total         -1.000459 e

     Chemical potential of solvation (in expand-cell)
     H2O        GaussFluct  -0.402578E+02 kcal/mol
     K+         GaussFluct  -0.224116E+04 kcal/mol
     OH-        GaussFluct   0.222024E+04 kcal/mol
     Total      GaussFluct  -0.611805E+02 kcal/mol


     total cpu time spent up to now is     2042.8 secs

     total energy              =     -35.50175929 Ry
     estimated scf accuracy    <       0.00000116 Ry

     iteration # 11     ecut=    40.00 Ry     beta= 0.10
     Davidson diagonalization with overlap
     ethr =  1.45E-08,  avg # of iterations =  3.0

     negative rho (up, down):  6.558E-03 0.000E+00

     Laue-RISM Calculation

     convergence threshold    = 1.000E-06
     iter. #     1  RMS(g-h-1)= 1.634E-05  nbox=  0
     iter. #    11  RMS(g-h-1)= 2.472E-06  nbox= 10
     iter. #    21  RMS(g-h-1)= 1.250E-06  nbox= 20
     iter. #    31  RMS(g-h-1)= 1.067E-06  nbox= 20
     iter. #    41  RMS(g-h-1)= 1.023E-06  nbox=  8
     iter. #    50  RMS(g-h-1)= 9.998E-07  nbox= 17

     End of Laue-RISM calculation


     convergence has been achieved in    50 iterations


     solvent charge   -1.00031, renormalised to   -1.00000

     Total number of solvent (in expand-cell)
     H2O         1129.490279
     K+            20.086893
     OH-           21.086902

     Total charge of solvent (in expand-cell)
     H2O           -0.000381 e
     K+            20.086893 e
     OH-          -21.086821 e
     Total         -1.000309 e

     Chemical potential of solvation (in expand-cell)
     H2O        GaussFluct  -0.402636E+02 kcal/mol
     K+         GaussFluct  -0.224116E+04 kcal/mol
     OH-        GaussFluct   0.222024E+04 kcal/mol
     Total      GaussFluct  -0.611902E+02 kcal/mol


     total cpu time spent up to now is     2091.8 secs

     total energy              =     -35.50175960 Ry
     estimated scf accuracy    <       0.00000083 Ry

     iteration # 12     ecut=    40.00 Ry     beta= 0.10
     Davidson diagonalization with overlap
     ethr =  1.03E-08,  avg # of iterations =  1.0

     negative rho (up, down):  6.448E-03 0.000E+00

     Laue-RISM Calculation

     convergence threshold    = 1.000E-06
     iter. #     1  RMS(g-h-1)= 1.283E-05  nbox=  0
     iter. #    11  RMS(g-h-1)= 1.844E-06  nbox= 10
     iter. #    21  RMS(g-h-1)= 1.071E-06  nbox= 20
     iter. #    31  RMS(g-h-1)= 1.011E-06  nbox= 20
     iter. #    38  RMS(g-h-1)= 9.972E-07  nbox=  5

     End of Laue-RISM calculation


     convergence has been achieved in    38 iterations


     solvent charge   -1.00035, renormalised to   -1.00000

     Total number of solvent (in expand-cell)
     H2O         1129.491177
     K+            20.086916
     OH-           21.086899

     Total charge of solvent (in expand-cell)
     H2O           -0.000387 e
     K+            20.086916 e
     OH-          -21.086874 e
     Total         -1.000345 e

     Chemical potential of solvation (in expand-cell)
     H2O        GaussFluct  -0.402747E+02 kcal/mol
     K+         GaussFluct  -0.224116E+04 kcal/mol
     OH-        GaussFluct   0.222023E+04 kcal/mol
     Total      GaussFluct  -0.612069E+02 kcal/mol


     total cpu time spent up to now is     2131.8 secs

     total energy              =     -35.50176087 Ry
     estimated scf accuracy    <       0.00000013 Ry

     iteration # 13     ecut=    40.00 Ry     beta= 0.10
     Davidson diagonalization with overlap
     ethr =  1.67E-09,  avg # of iterations =  2.0

     negative rho (up, down):  6.378E-03 0.000E+00

     Laue-RISM Calculation

     convergence threshold    = 1.000E-06
     iter. #     1  RMS(g-h-1)= 1.138E-05  nbox=  0
     iter. #    11  RMS(g-h-1)= 1.870E-06  nbox= 10
     iter. #    21  RMS(g-h-1)= 1.147E-06  nbox= 20
     iter. #    31  RMS(g-h-1)= 1.037E-06  nbox= 20
     iter. #    41  RMS(g-h-1)= 1.011E-06  nbox=  8
     iter. #    47  RMS(g-h-1)= 9.988E-07  nbox= 14

     End of Laue-RISM calculation


     convergence has been achieved in    47 iterations


     solvent charge   -1.00025, renormalised to   -1.00000

     Total number of solvent (in expand-cell)
     H2O         1129.491795
     K+            20.086923
     OH-           21.086870

     Total charge of solvent (in expand-cell)
     H2O           -0.000395 e
     K+            20.086923 e
     OH-          -21.086775 e
     Total         -1.000247 e

     Chemical potential of solvation (in expand-cell)
     H2O        GaussFluct  -0.402804E+02 kcal/mol
     K+         GaussFluct  -0.224116E+04 kcal/mol
     OH-        GaussFluct   0.222023E+04 kcal/mol
     Total      GaussFluct  -0.612162E+02 kcal/mol


     total cpu time spent up to now is     2178.4 secs

     total energy              =     -35.50176147 Ry
     estimated scf accuracy    <       0.00000034 Ry

     iteration # 14     ecut=    40.00 Ry     beta= 0.10
     Davidson diagonalization with overlap
     ethr =  1.67E-09,  avg # of iterations =  2.0

     negative rho (up, down):  6.350E-03 0.000E+00

     Laue-RISM Calculation

     convergence threshold    = 1.000E-06
     iter. #     1  RMS(g-h-1)= 7.099E-06  nbox=  0
     iter. #    11  RMS(g-h-1)= 1.313E-06  nbox= 10
     iter. #    21  RMS(g-h-1)= 1.011E-06  nbox= 20
     iter. #    25  RMS(g-h-1)= 9.969E-07  nbox= 20

     End of Laue-RISM calculation


     convergence has been achieved in    25 iterations


     solvent charge   -1.00031, renormalised to   -1.00000

     Total number of solvent (in expand-cell)
     H2O         1129.491355
     K+            20.086901
     OH-           21.086892

     Total charge of solvent (in expand-cell)
     H2O           -0.000393 e
     K+            20.086901 e
     OH-          -21.086822 e
     Total         -1.000314 e

     Chemical potential of solvation (in expand-cell)
     H2O        GaussFluct  -0.402760E+02 kcal/mol
     K+         GaussFluct  -0.224116E+04 kcal/mol
     OH-        GaussFluct   0.222023E+04 kcal/mol
     Total      GaussFluct  -0.612072E+02 kcal/mol


     total cpu time spent up to now is     2208.0 secs

     total energy              =     -35.50176108 Ry
     estimated scf accuracy    <       0.00000006 Ry

     iteration # 15     ecut=    40.00 Ry     beta= 0.10
     Davidson diagonalization with overlap
     ethr =  7.12E-10,  avg # of iterations =  2.0

     negative rho (up, down):  6.347E-03 0.000E+00

     Laue-RISM Calculation

     convergence threshold    = 1.000E-06
     iter. #     1  RMS(g-h-1)= 1.005E-06  nbox=  0
     iter. #     4  RMS(g-h-1)= 9.945E-07  nbox=  3

     End of Laue-RISM calculation


     convergence has been achieved in     4 iterations


     solvent charge   -1.00032, renormalised to   -1.00000

     Total number of solvent (in expand-cell)
     H2O         1129.491364
     K+            20.086901
     OH-           21.086892

     Total charge of solvent (in expand-cell)
     H2O           -0.000394 e
     K+            20.086901 e
     OH-          -21.086824 e
     Total         -1.000317 e

     Chemical potential of solvation (in expand-cell)
     H2O        GaussFluct  -0.402761E+02 kcal/mol
     K+         GaussFluct  -0.224116E+04 kcal/mol
     OH-        GaussFluct   0.222023E+04 kcal/mol
     Total      GaussFluct  -0.612073E+02 kcal/mol


     total cpu time spent up to now is     2221.2 secs

     total energy              =     -35.50176119 Ry
     estimated scf accuracy    <       0.00000002 Ry

     iteration # 16     ecut=    40.00 Ry     beta= 0.10
     Davidson diagonalization with overlap
     ethr =  2.34E-10,  avg # of iterations =  1.0

     negative rho (up, down):  6.361E-03 0.000E+00

     Laue-RISM Calculation

     convergence threshold    = 1.000E-06
     iter. #     1  RMS(g-h-1)= 1.009E-06  nbox=  0
     iter. #     4  RMS(g-h-1)= 9.942E-07  nbox=  3

     End of Laue-RISM calculation


     convergence has been achieved in     4 iterations


     solvent charge   -1.00032, renormalised to   -1.00000

     Total number of solvent (in expand-cell)
     H2O         1129.491383
     K+            20.086901
     OH-           21.086893

     Total charge of solvent (in expand-cell)
     H2O           -0.000396 e
     K+            20.086901 e
     OH-          -21.086825 e
     Total         -1.000321 e

     Chemical potential of solvation (in expand-cell)
     H2O        GaussFluct  -0.402763E+02 kcal/mol
     K+         GaussFluct  -0.224116E+04 kcal/mol
     OH-        GaussFluct   0.222023E+04 kcal/mol
     Total      GaussFluct  -0.612076E+02 kcal/mol


     total cpu time spent up to now is     2234.4 secs

     total energy              =     -35.50176124 Ry
     estimated scf accuracy    <       0.00000002 Ry

     iteration # 17     ecut=    40.00 Ry     beta= 0.10
     Davidson diagonalization with overlap
     ethr =  2.34E-10,  avg # of iterations =  1.0

     negative rho (up, down):  6.386E-03 0.000E+00

     Laue-RISM Calculation

     convergence threshold    = 1.000E-06
     iter. #     1  RMS(g-h-1)= 9.963E-07  nbox=  0

     End of Laue-RISM calculation


     convergence has been achieved in     1 iterations


     solvent charge   -1.00032, renormalised to   -1.00000

     Total number of solvent (in expand-cell)
     H2O         1129.491386
     K+            20.086901
     OH-           21.086893

     Total charge of solvent (in expand-cell)
     H2O           -0.000398 e
     K+            20.086901 e
     OH-          -21.086827 e
     Total         -1.000323 e

     Chemical potential of solvation (in expand-cell)
     H2O        GaussFluct  -0.402763E+02 kcal/mol
     K+         GaussFluct  -0.224116E+04 kcal/mol
     OH-        GaussFluct   0.222023E+04 kcal/mol
     Total      GaussFluct  -0.612076E+02 kcal/mol


     total cpu time spent up to now is     2245.7 secs

     total energy              =     -35.50176116 Ry
     estimated scf accuracy    <       0.00000002 Ry

     iteration # 18     ecut=    40.00 Ry     beta= 0.10
     Davidson diagonalization with overlap
     ethr =  2.29E-10,  avg # of iterations =  1.0

     negative rho (up, down):  6.419E-03 0.000E+00

     Laue-RISM Calculation

     convergence threshold    = 1.000E-06
     iter. #     1  RMS(g-h-1)= 1.507E-06  nbox=  0
     iter. #    11  RMS(g-h-1)= 9.962E-07  nbox= 10

     End of Laue-RISM calculation


     convergence has been achieved in    11 iterations


     solvent charge   -1.00033, renormalised to   -1.00000

     Total number of solvent (in expand-cell)
     H2O         1129.491494
     K+            20.086899
     OH-           21.086895

     Total charge of solvent (in expand-cell)
     H2O           -0.000385 e
     K+            20.086899 e
     OH-          -21.086841 e
     Total         -1.000326 e

     Chemical potential of solvation (in expand-cell)
     H2O        GaussFluct  -0.402778E+02 kcal/mol
     K+         GaussFluct  -0.224116E+04 kcal/mol
     OH-        GaussFluct   0.222023E+04 kcal/mol
     Total      GaussFluct  -0.612096E+02 kcal/mol


     total cpu time spent up to now is     2263.9 secs

     total energy              =     -35.50176126 Ry
     estimated scf accuracy    <       0.00000002 Ry

     iteration # 19     ecut=    40.00 Ry     beta= 0.10
     Davidson diagonalization with overlap
     ethr =  2.18E-10,  avg # of iterations =  1.0

     negative rho (up, down):  7.090E-03 0.000E+00

     Laue-RISM Calculation

     convergence threshold    = 1.000E-06
     iter. #     1  RMS(g-h-1)= 3.129E-06  nbox=  0
     iter. #    11  RMS(g-h-1)= 1.031E-06  nbox= 10
     iter. #    15  RMS(g-h-1)= 9.944E-07  nbox= 14

     End of Laue-RISM calculation


     convergence has been achieved in    15 iterations


     solvent charge   -1.00039, renormalised to   -1.00000

     Total number of solvent (in expand-cell)
     H2O         1129.491551
     K+            20.086896
     OH-           21.086944

     Total charge of solvent (in expand-cell)
     H2O           -0.000374 e
     K+            20.086896 e
     OH-          -21.086914 e
     Total         -1.000392 e

     Chemical potential of solvation (in expand-cell)
     H2O        GaussFluct  -0.402803E+02 kcal/mol
     K+         GaussFluct  -0.224116E+04 kcal/mol
     OH-        GaussFluct   0.222023E+04 kcal/mol
     Total      GaussFluct  -0.612108E+02 kcal/mol


     total cpu time spent up to now is     2285.2 secs

     End of self-consistent calculation

          k = 0.0000 0.0000 0.0000 (115195 PWs)   bands (ev):

   -29.2499 -15.8900 -15.8365 -11.5171  -0.9942  -0.1949   0.1299   0.1343

     the Fermi energy is    -6.5315 ev

!    total energy              =     -35.50176169 Ry
     estimated scf accuracy    <          8.5E-09 Ry
     smearing contrib. (-TS)   =      -0.00000000 Ry
     internal energy E=F+TS    =     -35.50176169 Ry

     The total energy is F=E-TS. E is the sum of the following terms:
     one-electron contribution =     -75.71736655 Ry
     hartree contribution      =      36.75758833 Ry
     xc contribution           =      -8.83904751 Ry
     ewald contribution        =      12.49228575 Ry
     solvation energy (RISM)   =      -0.19522172 Ry

     convergence has been achieved in  19 iterations

     negative rho (up, down):  7.090E-03 0.000E+00

     Forces acting on atoms (cartesian axes, Ry/au):

     atom    1 type  1   force =     0.00003609    0.00002954    0.00212886
     atom    2 type  2   force =     0.00104804    0.00028123   -0.00009418
     atom    3 type  2   force =    -0.00109961   -0.00034867   -0.00016216
     atom    4 type  2   force =     0.00001549    0.00003789   -0.00187743

     Total force =     0.003256     Total SCF correction =     0.000097

     Writing all to output data dir ./output/opt.save/ :
     XML data file, charge density, RISM restart, pseudopotentials, RISM molfiles, collected wavefunctions
 
     init_run     :    249.31s CPU    252.62s WALL (       1 calls)
     electrons    :   1936.52s CPU   1965.67s WALL (       1 calls)
     forces       :      0.76s CPU      0.85s WALL (       1 calls)

     Called by init_run:
     wfcinit      :      0.03s CPU      0.04s WALL (       1 calls)
     potinit      :    247.83s CPU    250.99s WALL (       1 calls)
     hinit0       :      0.35s CPU      0.37s WALL (       1 calls)

     Called by electrons:
     c_bands      :      1.22s CPU      1.38s WALL (      19 calls)
     sum_band     :      3.53s CPU      5.31s WALL (      19 calls)
     v_of_rho     :      3.11s CPU      3.36s WALL (      20 calls)
     newd         :      2.50s CPU      4.07s WALL (      20 calls)
     mix_rho      :      0.81s CPU      0.91s WALL (      19 calls)

     Called by c_bands:
     init_us_2    :      0.04s CPU      0.04s WALL (      39 calls)
     regterg      :      1.17s CPU      1.31s WALL (      19 calls)

     Called by *egterg:
     rdiaghg      :      0.01s CPU      0.01s WALL (      81 calls)
     h_psi        :      1.10s CPU      1.24s WALL (      82 calls)
     s_psi        :      0.01s CPU      0.01s WALL (      82 calls)
     g_psi        :      0.00s CPU      0.00s WALL (      62 calls)

     Called by h_psi:
     h_psi:calbec :      0.03s CPU      0.04s WALL (      82 calls)
     vloc_psi     :      1.05s CPU      1.18s WALL (      82 calls)
     add_vuspsi   :      0.02s CPU      0.02s WALL (      82 calls)

     General routines
     calbec       :      0.04s CPU      0.05s WALL (     105 calls)
     fft          :      3.42s CPU      3.93s WALL (     288 calls)
     ffts         :      0.12s CPU      0.14s WALL (      39 calls)
     fftw         :      0.76s CPU      0.86s WALL (     536 calls)
     interpolate  :      0.34s CPU      0.38s WALL (      20 calls)
 
     Parallel routines
     fft_scatt_xy :     21.52s CPU     23.75s WALL (   30886 calls)
     fft_scatt_yz :     73.01s CPU     86.66s WALL (   30886 calls)

     RISM routines
     1DRISM_pre   :      0.05s CPU      0.05s WALL (       1 calls)
     1DRISM_run   :     52.49s CPU     66.42s WALL (       1 calls)
     3DRISM_pre   :      8.68s CPU      8.77s WALL (       1 calls)
     3DRISM_run   :   2163.20s CPU   2191.37s WALL (      20 calls)
     3DRISM_for   :      0.15s CPU      0.15s WALL (       1 calls)
     3DRISM_vsol  :      0.31s CPU      0.34s WALL (      20 calls)
 
     PWSCF        :  37m26.45s CPU  38m23.54s WALL

 
   This run was terminated on:  10:26:49   9Jun2024            

=------------------------------------------------------------------------------=
   JOB DONE.
=------------------------------------------------------------------------------=
