
     Program DOS v.7.3.1 starts on 10Jun2024 at 16:37:30 

     This program is part of the open-source Quantum ESPRESSO suite
     for quantum simulation of materials; please cite
         "P. Giannozzi et al., J. Phys.:Condens. Matter 21 395502 (2009);
         "P. Giannozzi et al., J. Phys.:Condens. Matter 29 465901 (2017);
         "P. Giannozzi et al., J. Chem. Phys. 152 154105 (2020);
          URL http://www.quantum-espresso.org", 
     in publications or presentations arising from this work. More details at
     http://www.quantum-espresso.org/quote

     Parallel version (MPI), running on    32 processors

     MPI processes distributed on     1 nodes
     R & G space division:  proc/nbgrp/npool/nimage =      32
     166742 MiB available memory on the printing compute node when the environment starts
 

     Reading xml data from directory:

     output/opt.save/

     IMPORTANT: XC functional enforced from input :
     Exchange-correlation= PBE
                           (   1   4   3   4   0   0   0)
     Any further DFT definition will be discarded
     Please, verify this is what you really want

 
     Parallelization info
     --------------------
     sticks:   dense  smooth     PW     G-vecs:    dense   smooth      PW
     Min          65      32      9                14054     4956     765
     Max          66      33     10                14087     4993     792
     Sum        2083    1039    301               450233   159127   24819
 
     Using Slab Decomposition
 

     negative rho (up, down):  1.597E-03 0.000E+00

     solvent charge   -0.04996, renormalised to   -0.05000

     Gaussian broadening (read from input): ngauss,degauss=   0    0.010000

 
     DOS          :      0.63s CPU      0.90s WALL

 
   This run was terminated on:  16:37:31  10Jun2024            

=------------------------------------------------------------------------------=
   JOB DONE.
=------------------------------------------------------------------------------=
