
     Program PWSCF v.7.3.1 starts on 10Jun2024 at  9:45:20 

     This program is part of the open-source Quantum ESPRESSO suite
     for quantum simulation of materials; please cite
         "P. Giannozzi et al., J. Phys.:Condens. Matter 21 395502 (2009);
         "P. Giannozzi et al., J. Phys.:Condens. Matter 29 465901 (2017);
         "P. Giannozzi et al., J. Chem. Phys. 152 154105 (2020);
          URL http://www.quantum-espresso.org", 
     in publications or presentations arising from this work. More details at
     http://www.quantum-espresso.org/quote

     Parallel version (MPI), running on    32 processors

     MPI processes distributed on     1 nodes
     166905 MiB available memory on the printing compute node when the environment starts
 
     Reading input from scf.in
Warning: card &CELL ignored
Warning: card / ignored
Warning: card &FCP ignored
Warning: card    FCP_MU           = -5.03 ignored
Warning: card    FCP_DYNAMICS     = 'BFGS' ignored
Warning: card    FCP_CONV_THR     = 0.01 ignored
Warning: card    FREEZE_ALL_ATOMS = .FALSE. ignored
Warning: card / ignored
Warning: card &RISM ignored
Warning: card    NSOLV            = 3 ignored
Warning: card    CLOSURE          = 'KH' ignored
Warning: card    TEMPV            = 300.0 ignored
Warning: card    ECUTSOLV         = 160.0 ignored
Warning: card    SOLUTE_LJ(1)     = 'NONE' ignored
Warning: card    SOLUTE_EPSILON(1) = 0.005 ignored
Warning: card    SOLUTE_SIGMA(1)  = 3.11369102 ignored
Warning: card    STARTING1D       = 'ZERO' ignored
Warning: card    STARTING3D       = 'ZERO' ignored
Warning: card    RISM1D_MAXSTEP   = 15000 ignored
Warning: card    RISM3D_MAXSTEP   = 15000 ignored
Warning: card    RISM1D_CONV_THR  = 1E-08 ignored
Warning: card    RISM3D_CONV_THR  = 1E-06 ignored
Warning: card    MDIIS1D_SIZE     = 20 ignored
Warning: card    MDIIS3D_SIZE     = 20 ignored
Warning: card    MDIIS1D_STEP     = 0.2 ignored
Warning: card    MDIIS3D_STEP     = 0.1 ignored
Warning: card    RISM3D_CONV_LEVEL = 0.7 ignored
Warning: card    LAUE_EXPAND_RIGHT = 60 ignored
Warning: card    LAUE_BUFFER_RIGHT = 4.0 ignored
Warning: card / ignored
Warning: card SOLVENTS {MOL/L} ignored
Warning: card H2O -1.0 H2O.TIP5P.NISHIHARA.MOL ignored
Warning: card K+   1.0 K+.HAGIWARA.MOL ignored
Warning: card OH-  1.0 OH-.OPLSAA.MOL ignored

     Current dimensions of program PWSCF are:
     Max number of different atomic species (ntypx) = 10
     Max number of k-points (npk) =  40000
     Max angular momentum in pseudopotentials (lmaxx) =  4
     Message from routine iosys:
     mixing_mode=plain is ignored, 'TF' is adopted
     Message from routine iosys:
     accurate eigenvalues are required for all states: diago_full_acc=.TRUE.
 
     R & G space division:  proc/nbgrp/npool/nimage =      32
     Subspace diagonalization in iterative solution of the eigenvalue problem:
     a serial algorithm will be used

 
     Parallelization info
     --------------------
     sticks:   dense  smooth     PW     G-vecs:    dense   smooth      PW
     Min          65      32      9                14054     4956     765
     Max          66      33     10                14087     4993     792
     Sum        2083    1039    301               450233   159127   24819
 
     Using Slab Decomposition
 


     bravais-lattice index     =            0
     lattice parameter (alat)  =       9.7396  a.u.
     unit-cell volume          =    4657.2513 (a.u.)^3
     number of atoms/cell      =           12
     number of atomic types    =            1
     number of electrons       =       228.00
     number of Kohn-Sham states=          137
     kinetic-energy cutoff     =      40.0000  Ry
     charge density cutoff     =     320.0000  Ry
     scf convergence threshold =      1.0E-06
     mixing beta               =       0.1000
     number of iterations used =            8  TF        mixing
     energy convergence thresh.=      1.0E-04
     force convergence thresh. =      1.0E-03
     Exchange-correlation= SLA  PW   PBE  PBE
                           (   1   4   3   4   0   0   0)
     nstep                     =           50


     Effective Screening Medium Method
     =================================
     Boundary Conditions: Vacuum-Slab-Metal
     total charge in unit cell        =   0.0000
     grid points for fit at edges     =        4 
 

     >>>>> Grand-Canonical SCF is activated <<<<<
     Initial Total Charge  =     0.000000 e
     Target Fermi Energy   =    -5.030000 eV
     Thr. of Fermi Energy  =     0.010000 eV
     Wave-shift of Kerker  =     0.400000 bohr^-1
     Wave-shift of Hartree =     1.500000 bohr^-1
     Mixing Rate of Fermi  =     0.050000

     celldm(1)=   9.739563  celldm(2)=   0.000000  celldm(3)=   0.000000
     celldm(4)=   0.000000  celldm(5)=   0.000000  celldm(6)=   0.000000

     crystal axes: (cart. coord. in units of alat)
               a(1) = (   1.000000   0.000000   0.000000 )  
               a(2) = (   0.500000   0.866025   0.000000 )  
               a(3) = (   0.000000   0.000000   5.820773 )  

     reciprocal axes: (cart. coord. in units 2 pi/alat)
               b(1) = (  1.000000 -0.577350  0.000000 )  
               b(2) = (  0.000000  1.154701  0.000000 )  
               b(3) = (  0.000000  0.000000  0.171798 )  


     PseudoPot. # 1 for Cu read from file:
     ../../../pseudo/cu_pbe_v1.2.uspp.F.UPF
     MD5 check sum: 6e991ff952a84172a2a52a1c1e996048
     Pseudo is Ultrasoft + core correction, Zval = 19.0
     Generated by new atomic code, or converted to UPF format
     Using radial grid of  867 points,  6 beta functions with: 
                l(1) =   0
                l(2) =   0
                l(3) =   1
                l(4) =   1
                l(5) =   2
                l(6) =   2
     Q(r) pseudized with  8 coefficients,  rinner =    1.150   1.150   1.150
                                                       1.150   1.150

     atomic species   valence    mass     pseudopotential
     Cu               19.00    63.54600     Cu( 1.00)

     No symmetry found



   Cartesian axes

     site n.     atom                  positions (alat units)
         1        Cu     tau(   1) = (   0.0000000   0.0000000  -0.4043952  )
         2        Cu     tau(   2) = (   0.5000000   0.2886751   0.0038531  )
         3        Cu     tau(   3) = (   0.2494813   0.1438951   0.4046548  )
         4        Cu     tau(   4) = (   0.2500000   0.4330127  -0.4043952  )
         5        Cu     tau(   5) = (   0.7500000   0.7216878   0.0038531  )
         6        Cu     tau(   6) = (   0.4995199   0.5769009   0.4047081  )
         7        Cu     tau(   7) = (   0.5000000   0.0000000  -0.4043952  )
         8        Cu     tau(   8) = (   1.0000000   0.2886751   0.0038531  )
         9        Cu     tau(   9) = (   0.7494475   0.1438808   0.4047696  )
        10        Cu     tau(  10) = (   0.7500000   0.4330127  -0.4043952  )
        11        Cu     tau(  11) = (   1.2500000   0.7216878   0.0038531  )
        12        Cu     tau(  12) = (   0.9994872   0.5768887   0.4048458  )

     number of k points=     8  Gaussian smearing, width (Ry)=  0.0100
                       cart. coord. in units 2pi/alat
        k(    1) = (   0.1250000   0.0721688   0.0000000), wk =   0.2500000
        k(    2) = (   0.1250000   0.3608439   0.0000000), wk =   0.2500000
        k(    3) = (   0.1250000  -0.5051815   0.0000000), wk =   0.2500000
        k(    4) = (   0.1250000  -0.2165064   0.0000000), wk =   0.2500000
        k(    5) = (   0.3750000  -0.0721688   0.0000000), wk =   0.2500000
        k(    6) = (   0.3750000   0.2165064   0.0000000), wk =   0.2500000
        k(    7) = (   0.3750000  -0.6495191   0.0000000), wk =   0.2500000
        k(    8) = (   0.3750000  -0.3608439   0.0000000), wk =   0.2500000

     Dense  grid:   450233 G-vectors     FFT dimensions: (  60,  60, 324)

     Smooth grid:   159127 G-vectors     FFT dimensions: (  40,  40, 240)

     Estimated max dynamical RAM per process >      71.06 MB

     Estimated total dynamical RAM >       2.22 GB

     Initial potential from superposition of free atoms

     starting charge     216.0000, renormalised to     228.0000

     negative rho (up, down):  4.189E-03 0.000E+00
     Starting wfcs are  156 randomized atomic wfcs

     total cpu time spent up to now is        1.1 secs

     Self-consistent Calculation

     iteration #  1     ecut=    40.00 Ry     beta= 0.10
     Davidson diagonalization with overlap
     c_bands:  1 eigenvalues not converged
     c_bands:  1 eigenvalues not converged
     c_bands:  1 eigenvalues not converged
     c_bands:  2 eigenvalues not converged
     c_bands:  1 eigenvalues not converged
     c_bands:  2 eigenvalues not converged
     ethr =  1.00E-05,  avg # of iterations =175.5

     negative rho (up, down):  4.744E-05 0.000E+00

     total cpu time spent up to now is       71.2 secs

     total energy              =   -4827.62699457 Ry
     estimated scf accuracy    <     102.26889153 Ry

     total charge of GC-SCF    =       0.10316226 e
     the Fermi energy          =       2.05772137 eV
                        (error :       7.08772137 eV)

     iteration #  2     ecut=    40.00 Ry     beta= 0.10
     Davidson diagonalization with overlap
     ethr =  1.00E-05,  avg # of iterations = 82.4

     negative rho (up, down):  2.073E-03 0.000E+00

     total cpu time spent up to now is      109.3 secs

     total energy              =   -4846.64542832 Ry
     estimated scf accuracy    <       5.97900946 Ry

     total charge of GC-SCF    =       0.03645584 e
     the Fermi energy          =     -15.40906462 eV
                        (error :      10.37906462 eV)

     iteration #  3     ecut=    40.00 Ry     beta= 0.10
     Davidson diagonalization with overlap
     ethr =  1.00E-05,  avg # of iterations = 87.9

     negative rho (up, down):  3.599E-03 0.000E+00

     total cpu time spent up to now is      136.9 secs

     total energy              =   -4845.46820558 Ry
     estimated scf accuracy    <       2.36917840 Ry

     total charge of GC-SCF    =       0.01203003 e
     the Fermi energy          =      -9.11328562 eV
                        (error :       4.08328562 eV)

     iteration #  4     ecut=    40.00 Ry     beta= 0.10
     Davidson diagonalization with overlap
     ethr =  1.00E-05,  avg # of iterations = 54.9

     negative rho (up, down):  4.714E-03 0.000E+00

     total cpu time spent up to now is      154.2 secs

     total energy              =   -4845.00065688 Ry
     estimated scf accuracy    <       0.69824825 Ry

     total charge of GC-SCF    =      -0.01553781 e
     the Fermi energy          =      -7.15057796 eV
                        (error :       2.12057796 eV)

     iteration #  5     ecut=    40.00 Ry     beta= 0.10
     Davidson diagonalization with overlap
     c_bands:  2 eigenvalues not converged
     c_bands:  1 eigenvalues not converged
     ethr =  1.00E-05,  avg # of iterations = 99.6

     negative rho (up, down):  4.191E-03 0.000E+00

     total cpu time spent up to now is      181.3 secs

     total energy              =   -4845.09661136 Ry
     estimated scf accuracy    <       0.05992178 Ry

     total charge of GC-SCF    =      -0.01725140 e
     the Fermi energy          =      -4.83922439 eV
                        (error :       0.19077561 eV)

     iteration #  6     ecut=    40.00 Ry     beta= 0.10
     Davidson diagonalization with overlap
     ethr =  1.00E-05,  avg # of iterations = 29.8

     negative rho (up, down):  3.377E-03 0.000E+00

     total cpu time spent up to now is      190.0 secs

     total energy              =   -4845.09496734 Ry
     estimated scf accuracy    <       0.01547007 Ry

     total charge of GC-SCF    =      -0.01437385 e
     the Fermi energy          =      -4.90642111 eV
                        (error :       0.12357889 eV)

     iteration #  7     ecut=    40.00 Ry     beta= 0.10
     Davidson diagonalization with overlap
     ethr =  6.78E-06,  avg # of iterations = 59.9

     negative rho (up, down):  2.949E-03 0.000E+00

     total cpu time spent up to now is      206.7 secs

     total energy              =   -4845.09559802 Ry
     estimated scf accuracy    <       0.02122728 Ry

     total charge of GC-SCF    =      -0.01715650 e
     the Fermi energy          =      -5.33915432 eV
                        (error :       0.30915432 eV)

     iteration #  8     ecut=    40.00 Ry     beta= 0.10
     Davidson diagonalization with overlap
     ethr =  6.78E-06,  avg # of iterations = 29.1

     negative rho (up, down):  2.848E-03 0.000E+00

     total cpu time spent up to now is      215.8 secs

     total energy              =   -4845.10759742 Ry
     estimated scf accuracy    <       0.00255948 Ry

     total charge of GC-SCF    =      -0.01716713 e
     the Fermi energy          =      -4.82814754 eV
                        (error :       0.20185246 eV)

     iteration #  9     ecut=    40.00 Ry     beta= 0.10
     Davidson diagonalization with overlap
     ethr =  1.12E-06,  avg # of iterations = 55.9

     negative rho (up, down):  2.767E-03 0.000E+00

     total cpu time spent up to now is      231.5 secs

     total energy              =   -4845.10585831 Ry
     estimated scf accuracy    <       0.00517496 Ry

     total charge of GC-SCF    =      -0.01418048 e
     the Fermi energy          =      -4.71857420 eV
                        (error :       0.31142580 eV)

     iteration # 10     ecut=    40.00 Ry     beta= 0.10
     Davidson diagonalization with overlap
     ethr =  1.12E-06,  avg # of iterations = 33.0

     negative rho (up, down):  2.823E-03 0.000E+00

     total cpu time spent up to now is      240.8 secs

     total energy              =   -4845.10520571 Ry
     estimated scf accuracy    <       0.00025539 Ry

     total charge of GC-SCF    =      -0.01216640 e
     the Fermi energy          =      -4.89851158 eV
                        (error :       0.13148842 eV)

     iteration # 11     ecut=    40.00 Ry     beta= 0.10
     Davidson diagonalization with overlap
     ethr =  1.12E-07,  avg # of iterations = 72.5

     negative rho (up, down):  2.720E-03 0.000E+00

     total cpu time spent up to now is      261.5 secs

     total energy              =   -4845.10555312 Ry
     estimated scf accuracy    <       0.00029760 Ry

     total charge of GC-SCF    =      -0.01228238 e
     the Fermi energy          =      -5.02362640 eV
                        (error :       0.00637360 eV)

     iteration # 12     ecut=    40.00 Ry     beta= 0.10
     Davidson diagonalization with overlap
     ethr =  1.12E-07,  avg # of iterations =  1.4

     negative rho (up, down):  2.580E-03 0.000E+00

     total cpu time spent up to now is      263.3 secs

     total energy              =   -4845.10509444 Ry
     estimated scf accuracy    <       0.00032437 Ry

     total charge of GC-SCF    =      -0.01120630 e
     the Fermi energy          =      -5.00484420 eV
                        (error :       0.02515580 eV)

     iteration # 13     ecut=    40.00 Ry     beta= 0.10
     Davidson diagonalization with overlap
     ethr =  1.12E-07,  avg # of iterations = 45.9

     negative rho (up, down):  2.492E-03 0.000E+00

     total cpu time spent up to now is      276.1 secs

     total energy              =   -4845.10507152 Ry
     estimated scf accuracy    <       0.00004349 Ry

     total charge of GC-SCF    =      -0.01087553 e
     the Fermi energy          =      -5.02162927 eV
                        (error :       0.00837073 eV)

     iteration # 14     ecut=    40.00 Ry     beta= 0.10
     Davidson diagonalization with overlap
     c_bands:  2 eigenvalues not converged
     ethr =  1.91E-08,  avg # of iterations = 71.4

     negative rho (up, down):  2.376E-03 0.000E+00

     total cpu time spent up to now is      295.2 secs

     total energy              =   -4845.10509856 Ry
     estimated scf accuracy    <       0.00005668 Ry

     total charge of GC-SCF    =      -0.01062361 e
     the Fermi energy          =      -5.00125859 eV
                        (error :       0.02874141 eV)

     iteration # 15     ecut=    40.00 Ry     beta= 0.10
     Davidson diagonalization with overlap
     ethr =  1.91E-08,  avg # of iterations = 37.6

     negative rho (up, down):  2.214E-03 0.000E+00

     total cpu time spent up to now is      305.3 secs

     total energy              =   -4845.10497004 Ry
     estimated scf accuracy    <       0.00002418 Ry

     total charge of GC-SCF    =      -0.01010601 e
     the Fermi energy          =      -5.00253405 eV
                        (error :       0.02746595 eV)

     iteration # 16     ecut=    40.00 Ry     beta= 0.10
     Davidson diagonalization with overlap
     c_bands:  2 eigenvalues not converged
     ethr =  1.06E-08,  avg # of iterations = 68.1

     negative rho (up, down):  1.984E-03 0.000E+00

     total cpu time spent up to now is      322.9 secs

     total energy              =   -4845.10463169 Ry
     estimated scf accuracy    <       0.00002806 Ry

     total charge of GC-SCF    =      -0.00885226 e
     the Fermi energy          =      -4.99832760 eV
                        (error :       0.03167240 eV)

     iteration # 17     ecut=    40.00 Ry     beta= 0.10
     Davidson diagonalization with overlap
     c_bands:  2 eigenvalues not converged
     ethr =  1.06E-08,  avg # of iterations = 86.6

     negative rho (up, down):  1.899E-03 0.000E+00

     total cpu time spent up to now is      345.2 secs

     total energy              =   -4845.10427532 Ry
     estimated scf accuracy    <       0.00002555 Ry

     total charge of GC-SCF    =      -0.00771262 e
     the Fermi energy          =      -5.01051987 eV
                        (error :       0.01948013 eV)

     iteration # 18     ecut=    40.00 Ry     beta= 0.10
     Davidson diagonalization with overlap
     c_bands:  2 eigenvalues not converged
     ethr =  1.06E-08,  avg # of iterations = 76.8

     negative rho (up, down):  1.839E-03 0.000E+00

     total cpu time spent up to now is      366.0 secs

     total energy              =   -4845.10423872 Ry
     estimated scf accuracy    <       0.00000874 Ry

     total charge of GC-SCF    =      -0.00743156 e
     the Fermi energy          =      -5.00985329 eV
                        (error :       0.02014671 eV)

     iteration # 19     ecut=    40.00 Ry     beta= 0.10
     Davidson diagonalization with overlap
     c_bands:  2 eigenvalues not converged
     ethr =  3.83E-09,  avg # of iterations = 63.5

     negative rho (up, down):  1.313E-03 0.000E+00

     total cpu time spent up to now is      382.4 secs

     total energy              =   -4845.10343582 Ry
     estimated scf accuracy    <       0.00000672 Ry

     total charge of GC-SCF    =      -0.00500946 e
     the Fermi energy          =      -5.01002274 eV
                        (error :       0.01997726 eV)

     iteration # 20     ecut=    40.00 Ry     beta= 0.10
     Davidson diagonalization with overlap
     c_bands:  3 eigenvalues not converged
     ethr =  2.95E-09,  avg # of iterations =108.0

     negative rho (up, down):  1.327E-03 0.000E+00

     total cpu time spent up to now is      411.5 secs

     total energy              =   -4845.10332674 Ry
     estimated scf accuracy    <       0.00000623 Ry

     total charge of GC-SCF    =      -0.00454682 e
     the Fermi energy          =      -5.01479586 eV
                        (error :       0.01520414 eV)

     iteration # 21     ecut=    40.00 Ry     beta= 0.10
     Davidson diagonalization with overlap
     c_bands:  3 eigenvalues not converged
     ethr =  2.73E-09,  avg # of iterations = 72.8

     negative rho (up, down):  1.226E-03 0.000E+00

     total cpu time spent up to now is      430.1 secs

     total energy              =   -4845.10304462 Ry
     estimated scf accuracy    <       0.00000387 Ry

     total charge of GC-SCF    =      -0.00361061 e
     the Fermi energy          =      -5.01516092 eV
                        (error :       0.01483908 eV)

     iteration # 22     ecut=    40.00 Ry     beta= 0.10
     Davidson diagonalization with overlap
     c_bands:  3 eigenvalues not converged
     ethr =  1.70E-09,  avg # of iterations = 95.9

     negative rho (up, down):  1.246E-03 0.000E+00

     total cpu time spent up to now is      455.3 secs

     total energy              =   -4845.10274041 Ry
     estimated scf accuracy    <       0.00000317 Ry

     total charge of GC-SCF    =      -0.00256380 e
     the Fermi energy          =      -5.01477431 eV
                        (error :       0.01522569 eV)

     iteration # 23     ecut=    40.00 Ry     beta= 0.10
     Davidson diagonalization with overlap
     c_bands:  3 eigenvalues not converged
     ethr =  1.39E-09,  avg # of iterations = 95.6

     negative rho (up, down):  1.730E-03 0.000E+00

     total cpu time spent up to now is      480.3 secs

     total energy              =   -4845.10192480 Ry
     estimated scf accuracy    <       0.00000249 Ry

     total charge of GC-SCF    =       0.00029367 e
     the Fermi energy          =      -5.01637387 eV
                        (error :       0.01362613 eV)

     iteration # 24     ecut=    40.00 Ry     beta= 0.10
     Davidson diagonalization with overlap
     c_bands:  3 eigenvalues not converged
     ethr =  1.09E-09,  avg # of iterations =115.4

     negative rho (up, down):  1.853E-03 0.000E+00

     total cpu time spent up to now is      511.9 secs

     total energy              =   -4845.10184122 Ry
     estimated scf accuracy    <       0.00000250 Ry

     total charge of GC-SCF    =       0.00065042 e
     the Fermi energy          =      -5.02498526 eV
                        (error :       0.00501474 eV)

     iteration # 25     ecut=    40.00 Ry     beta= 0.10
     Davidson diagonalization with overlap
     c_bands:  1 eigenvalues not converged
     ethr =  1.09E-09,  avg # of iterations = 87.4

     negative rho (up, down):  1.541E-03 0.000E+00

     total cpu time spent up to now is      534.6 secs

     End of self-consistent calculation

          k = 0.1250 0.0722 0.0000 ( 19861 PWs)   bands (ev):

  -117.5092-117.5016-117.5012-117.5012-117.2437-117.2363-117.2358-117.2356
  -117.2178-117.2102-117.2099-117.2099 -74.9361 -74.9360 -74.9333 -74.9101
   -74.8999 -74.8996 -74.8996 -74.8814 -74.8814 -74.8805 -74.8631 -74.8628
   -74.6920 -74.6920 -74.6802 -74.6683 -74.6683 -74.6565 -74.6406 -74.6323
   -74.6323 -74.6231 -74.6166 -74.6122 -74.6084 -74.6084 -74.6023 -74.5992
   -74.5958 -74.5953 -74.5950 -74.5882 -74.5728 -74.5660 -74.5657 -74.5657
   -13.4484 -11.4747  -9.9913  -9.7659  -9.6235  -9.6234  -9.4372  -9.3949
    -9.3948  -9.0576  -9.0218  -9.0217  -8.9140  -8.9115  -8.9115  -8.3389
    -8.3387  -8.3284  -7.9786  -7.9553  -7.9518  -7.9514  -7.9139  -7.8624
    -7.8565  -7.7691  -7.7690  -7.6976  -7.6670  -7.6624  -7.5724  -7.5367
    -7.5108  -7.5040  -7.5036  -7.1166  -7.1164  -7.0889  -7.0877  -7.0803
    -7.0156  -7.0112  -7.0111  -6.9423  -6.7758  -6.6937  -6.6806  -6.6806
    -6.6534  -6.6190  -6.6065  -6.6065  -6.5792  -6.5790  -6.5611  -6.5502
    -6.4555  -6.4554  -6.3755  -6.3755  -6.3677  -6.3426  -6.2292  -5.7517
    -5.0117  -5.0112  -4.7525  -4.6761  -3.9741  -3.9736  -2.9820  -2.9809
    -2.7255  -0.7626  -0.5074  -0.4686  -0.4214  -0.4200  -0.3700   0.1485
     0.3955   0.3956   0.4294   0.5710   1.4302   1.6660   1.7531   1.7538
     1.7880

          k = 0.1250 0.3608 0.0000 ( 19876 PWs)   bands (ev):

  -117.5075-117.5030-117.5021-117.5007-117.2420-117.2376-117.2365-117.2353
  -117.2161-117.2116-117.2107-117.2094 -74.9293 -74.9236 -74.9208 -74.9078
   -74.9018 -74.9005 -74.8988 -74.8941 -74.8845 -74.8796 -74.8769 -74.8662
   -74.6850 -74.6779 -74.6712 -74.6612 -74.6541 -74.6475 -74.6451 -74.6439
   -74.6361 -74.6272 -74.6213 -74.6199 -74.6186 -74.6121 -74.6033 -74.6007
   -74.5969 -74.5959 -74.5948 -74.5947 -74.5713 -74.5673 -74.5665 -74.5652
   -12.7327 -10.8220 -10.4416  -9.9247  -9.4956  -9.4797  -9.3118  -9.2455
    -9.1217  -8.9520  -8.8963  -8.8392  -8.6618  -8.6285  -8.6204  -8.3361
    -8.3208  -8.3155  -8.2385  -8.1188  -8.0801  -8.0236  -7.9569  -7.9548
    -7.8259  -7.7960  -7.7430  -7.7197  -7.6745  -7.6663  -7.6379  -7.6240
    -7.6155  -7.5349  -7.4008  -7.3800  -7.3789  -7.2944  -7.2887  -7.2594
    -7.2433  -7.2211  -7.2054  -7.1346  -7.0821  -7.0673  -7.0366  -6.9466
    -6.9264  -6.9197  -6.8522  -6.7711  -6.7649  -6.7071  -6.7019  -6.6086
    -6.6051  -6.5702  -6.5686  -6.5541  -6.5001  -6.4948  -6.4297  -5.9453
    -5.8827  -5.4946  -5.0712  -3.8732  -3.5137  -3.4048  -2.7571  -2.5967
    -1.9661  -0.2285  -0.1060   0.0593   0.1931   0.2285   0.5966   0.8637
     0.9046   1.0955   1.2444   1.8693   2.1398   2.3190   2.3851   2.5826
     2.7722

          k = 0.1250-0.5052 0.0000 ( 19917 PWs)   bands (ev):

  -117.5060-117.5044-117.5022-117.5006-117.2406-117.2390-117.2367-117.2351
  -117.2146-117.2131-117.2108-117.2093 -74.9231 -74.9196 -74.9073 -74.9058
   -74.9037 -74.9018 -74.9007 -74.8985 -74.8936 -74.8870 -74.8736 -74.8691
   -74.6728 -74.6725 -74.6631 -74.6589 -74.6524 -74.6489 -74.6488 -74.6411
   -74.6392 -74.6351 -74.6285 -74.6257 -74.6187 -74.6172 -74.6018 -74.5994
   -74.5980 -74.5961 -74.5947 -74.5947 -74.5700 -74.5686 -74.5666 -74.5651
   -12.0577 -11.2464 -10.2657  -9.9485  -9.7523  -9.2202  -9.1325  -9.0698
    -8.9794  -8.9285  -8.7502  -8.7382  -8.5759  -8.5392  -8.4962  -8.3794
    -8.3552  -8.3456  -8.2575  -8.2564  -8.1464  -8.1459  -7.9574  -7.9535
    -7.8561  -7.8254  -7.7566  -7.7382  -7.7327  -7.7189  -7.7137  -7.6713
    -7.6529  -7.5863  -7.5673  -7.5294  -7.5233  -7.5048  -7.4636  -7.4415
    -7.3839  -7.2198  -7.2081  -7.1552  -7.1020  -7.0891  -7.0671  -7.0388
    -7.0066  -6.9683  -6.8824  -6.8444  -6.8425  -6.7741  -6.7635  -6.7180
    -6.6627  -6.6033  -6.5665  -6.5620  -6.5531  -6.5005  -6.4989  -6.4339
    -5.8368  -5.0570  -4.9515  -4.2640  -3.8628  -2.6346  -2.5601  -2.5112
    -1.4514  -0.7101   0.4609   0.5328   0.5439   0.8877   0.9370   1.3958
     1.4444   1.5771   1.7651   1.7672   1.8151   1.8820   2.4838   2.5206
     2.6610

          k = 0.1250-0.2165 0.0000 ( 19876 PWs)   bands (ev):

  -117.5086-117.5018-117.5018-117.5009-117.2431-117.2365-117.2364-117.2354
  -117.2172-117.2105-117.2105-117.2096 -74.9326 -74.9305 -74.9305 -74.9093
   -74.9004 -74.9003 -74.8991 -74.8882 -74.8800 -74.8800 -74.8705 -74.8624
   -74.6861 -74.6861 -74.6796 -74.6623 -74.6623 -74.6559 -74.6480 -74.6315
   -74.6314 -74.6306 -74.6241 -74.6115 -74.6075 -74.6075 -74.6067 -74.6017
   -74.5959 -74.5958 -74.5949 -74.5875 -74.5723 -74.5662 -74.5662 -74.5654
   -13.2060 -11.2488  -9.8670  -9.8669  -9.8137  -9.4442  -9.4040  -9.4040
    -9.2819  -9.0114  -9.0113  -8.9457  -8.8091  -8.8091  -8.7918  -8.3357
    -8.3247  -8.3244  -8.0883  -7.9443  -7.9249  -7.9244  -7.9242  -7.9175
    -7.9055  -7.7756  -7.7734  -7.7731  -7.6615  -7.6283  -7.5887  -7.5808
    -7.5805  -7.5460  -7.4267  -7.2406  -7.2055  -7.2054  -7.1840  -7.1058
    -7.0589  -7.0326  -7.0326  -7.0055  -6.9078  -6.8827  -6.8314  -6.8314
    -6.7381  -6.7380  -6.7149  -6.7002  -6.6425  -6.6425  -6.6177  -6.5805
    -6.5625  -6.5005  -6.5005  -6.4660  -6.4659  -6.4530  -5.9407  -5.9406
    -5.9302  -5.0229  -5.0226  -4.2777  -4.1615  -3.3352  -2.7957  -2.5849
    -2.5844  -0.5428  -0.4426  -0.2725  -0.2384   0.0277   0.0285   0.3870
     0.6507   0.8373   1.0021   1.0023   1.6340   1.6669   1.8471   1.8476
     1.8825

          k = 0.3750-0.0722 0.0000 ( 19876 PWs)   bands (ev):

  -117.5075-117.5030-117.5021-117.5007-117.2420-117.2375-117.2367-117.2352
  -117.2161-117.2116-117.2107-117.2094 -74.9293 -74.9236 -74.9207 -74.9078
   -74.9018 -74.9005 -74.8988 -74.8941 -74.8844 -74.8796 -74.8769 -74.8662
   -74.6850 -74.6779 -74.6713 -74.6612 -74.6541 -74.6475 -74.6451 -74.6438
   -74.6360 -74.6272 -74.6212 -74.6199 -74.6186 -74.6121 -74.6033 -74.6007
   -74.5967 -74.5960 -74.5947 -74.5947 -74.5713 -74.5673 -74.5665 -74.5652
   -12.7327 -10.8220 -10.4416  -9.9247  -9.4957  -9.4797  -9.3117  -9.2455
    -9.1217  -8.9522  -8.8964  -8.8392  -8.6618  -8.6285  -8.6204  -8.3360
    -8.3207  -8.3157  -8.2383  -8.1186  -8.0801  -8.0239  -7.9568  -7.9547
    -7.8261  -7.7954  -7.7425  -7.7196  -7.6744  -7.6664  -7.6379  -7.6243
    -7.6154  -7.5353  -7.4007  -7.3801  -7.3789  -7.2943  -7.2886  -7.2594
    -7.2433  -7.2211  -7.2052  -7.1347  -7.0821  -7.0672  -7.0368  -6.9467
    -6.9265  -6.9199  -6.8521  -6.7712  -6.7649  -6.7071  -6.7020  -6.6087
    -6.6049  -6.5699  -6.5686  -6.5540  -6.5003  -6.4949  -6.4297  -5.9451
    -5.8827  -5.4947  -5.0712  -3.8731  -3.5139  -3.4048  -2.7574  -2.5967
    -1.9670  -0.2288  -0.1060   0.0604   0.1931   0.2285   0.5966   0.8637
     0.9047   1.0955   1.2444   1.8694   2.1397   2.3190   2.3857   2.5823
     2.7722

          k = 0.3750 0.2165 0.0000 ( 19929 PWs)   bands (ev):

  -117.5070-117.5038-117.5012-117.5012-117.2415-117.2384-117.2358-117.2357
  -117.2156-117.2124-117.2099-117.2099 -74.9266 -74.9266 -74.9129 -74.9071
   -74.9028 -74.8995 -74.8995 -74.8909 -74.8909 -74.8837 -74.8753 -74.8680
   -74.6844 -74.6844 -74.6606 -74.6606 -74.6604 -74.6400 -74.6400 -74.6366
   -74.6355 -74.6321 -74.6283 -74.6161 -74.6161 -74.6115 -74.6083 -74.6043
   -74.6002 -74.5975 -74.5953 -74.5951 -74.5709 -74.5680 -74.5657 -74.5657
   -12.5036 -10.9046 -10.6274  -9.6351  -9.4424  -9.4424  -9.3681  -9.1472
    -9.1472  -8.9739  -8.8209  -8.8208  -8.6167  -8.5685  -8.5685  -8.3008
    -8.2975  -8.2974  -8.2966  -8.1641  -8.1640  -8.1590  -7.9458  -7.9240
    -7.7691  -7.7688  -7.7577  -7.6920  -7.6919  -7.6747  -7.6101  -7.6099
    -7.5912  -7.5015  -7.4761  -7.4689  -7.4689  -7.3904  -7.3904  -7.3855
    -7.3484  -7.2137  -7.2020  -7.1299  -7.1298  -7.1251  -7.0558  -6.9646
    -6.9511  -6.9509  -6.8381  -6.7972  -6.7945  -6.7945  -6.7932  -6.7368
    -6.7059  -6.5666  -6.5666  -6.5438  -6.5227  -6.4621  -6.4621  -6.3809
    -5.3111  -5.0312  -5.0312  -3.9483  -3.9074  -3.9073  -3.1803  -1.5780
    -1.5776  -0.9519   0.1109   0.4246   0.4640   0.4955   0.4961   1.1016
     1.3187   1.7004   1.7005   1.7785   2.2719   2.3456   2.3757   2.4517
     2.4520

          k = 0.3750-0.6495 0.0000 ( 19872 PWs)   bands (ev):

  -117.5048-117.5048-117.5034-117.5003-117.2394-117.2393-117.2379-117.2348
  -117.2134-117.2134-117.2121-117.2089 -74.9200 -74.9127 -74.9089 -74.9043
   -74.9042 -74.9023 -74.9015 -74.9015 -74.8981 -74.8797 -74.8754 -74.8753
   -74.6787 -74.6715 -74.6568 -74.6548 -74.6521 -74.6521 -74.6477 -74.6329
   -74.6328 -74.6328 -74.6284 -74.6283 -74.6283 -74.6089 -74.6089 -74.6045
   -74.5984 -74.5983 -74.5970 -74.5944 -74.5689 -74.5689 -74.5677 -74.5648
   -11.4267 -11.4266 -10.6781  -9.8166  -9.8166  -9.4263  -8.8604  -8.8536
    -8.8535  -8.8314  -8.6704  -8.6543  -8.6312  -8.6021  -8.4889  -8.4709
    -8.4708  -8.3127  -8.3127  -8.2222  -8.0539  -8.0485  -8.0233  -8.0232
    -8.0041  -7.9296  -7.9292  -7.9291  -7.8639  -7.8639  -7.7092  -7.6512
    -7.6483  -7.6234  -7.5569  -7.5465  -7.5460  -7.5358  -7.4565  -7.4563
    -7.2867  -7.2864  -7.1749  -7.1252  -7.0674  -7.0673  -7.0601  -7.0403
    -6.9722  -6.9722  -6.9010  -6.7645  -6.7645  -6.7015  -6.6983  -6.6983
    -6.6497  -6.6220  -6.6094  -6.6092  -6.5903  -6.5877  -6.4194  -6.4193
    -6.3513  -5.9089  -4.4039  -4.4038  -3.6365  -2.4046  -1.7069  -1.7068
    -1.0710  -0.6591  -0.5860  -0.5457   1.1664   1.1924   1.1925   1.3141
     1.5845   1.5846   1.6473   1.6473   2.0494   2.2886   2.2886   2.3131
     2.4455

          k = 0.3750-0.3608 0.0000 ( 19917 PWs)   bands (ev):

  -117.5060-117.5044-117.5022-117.5006-117.2406-117.2389-117.2368-117.2351
  -117.2146-117.2131-117.2108-117.2093 -74.9231 -74.9197 -74.9073 -74.9058
   -74.9037 -74.9018 -74.9007 -74.8985 -74.8936 -74.8870 -74.8736 -74.8691
   -74.6729 -74.6724 -74.6630 -74.6589 -74.6524 -74.6489 -74.6488 -74.6411
   -74.6392 -74.6351 -74.6285 -74.6257 -74.6187 -74.6172 -74.6018 -74.5994
   -74.5979 -74.5961 -74.5947 -74.5946 -74.5700 -74.5686 -74.5666 -74.5651
   -12.0577 -11.2465 -10.2657  -9.9485  -9.7524  -9.2202  -9.1326  -9.0698
    -8.9794  -8.9287  -8.7503  -8.7382  -8.5758  -8.5392  -8.4962  -8.3792
    -8.3552  -8.3455  -8.2574  -8.2563  -8.1465  -8.1459  -7.9571  -7.9534
    -7.8561  -7.8253  -7.7566  -7.7380  -7.7326  -7.7189  -7.7137  -7.6714
    -7.6531  -7.5863  -7.5673  -7.5293  -7.5233  -7.5048  -7.4636  -7.4416
    -7.3840  -7.2196  -7.2081  -7.1551  -7.1020  -7.0892  -7.0670  -7.0389
    -7.0066  -6.9684  -6.8825  -6.8444  -6.8425  -6.7741  -6.7636  -6.7180
    -6.6629  -6.6032  -6.5663  -6.5620  -6.5529  -6.5006  -6.4991  -6.4339
    -5.8368  -5.0570  -4.9515  -4.2641  -3.8628  -2.6346  -2.5602  -2.5112
    -1.4517  -0.7101   0.4607   0.5331   0.5439   0.8877   0.9370   1.3958
     1.4446   1.5771   1.7653   1.7672   1.8151   1.8820   2.4838   2.5205
     2.6610

     the Fermi energy is    -5.0252 ev

!    total energy              =   -4845.10110458 Ry
     estimated scf accuracy    <       0.00000058 Ry

!    total charge of GC-SCF    =       0.00356806 e
     smearing contrib. (-TS)   =      -0.00788178 Ry
     internal energy E=F+TS    =   -4845.09322280 Ry

     The total energy is F=E-TS. E is the sum of the following terms:
     one-electron contribution = -423907.45816001 Ry
     hartree contribution      =  211916.78228416 Ry
     xc contribution           =    -465.29154275 Ry
     ewald contribution        =  207610.87551490 Ry
     pot.stat. contrib. (-muN) =      -0.00131911 Ry

     convergence has been achieved in  25 iterations

     negative rho (up, down):  1.541E-03 0.000E+00

     Forces acting on atoms (cartesian axes, Ry/au):

     atom    1 type  1   force =     0.00015773    0.00007206    0.00691454
     atom    2 type  1   force =    -0.00007742   -0.00009040   -0.00209394
     atom    3 type  1   force =    -0.00005951   -0.00001476    0.00392327
     atom    4 type  1   force =     0.00016100    0.00009359    0.00691517
     atom    5 type  1   force =    -0.00007526   -0.00009790   -0.00206808
     atom    6 type  1   force =    -0.00010106    0.00001419    0.00389026
     atom    7 type  1   force =     0.00013898    0.00007758    0.00692457
     atom    8 type  1   force =    -0.00011525   -0.00005208   -0.00205393
     atom    9 type  1   force =    -0.00001201   -0.00002518    0.00381569
     atom   10 type  1   force =     0.00015599    0.00010598    0.00691559
     atom   11 type  1   force =    -0.00011666   -0.00008434   -0.00203721
     atom   12 type  1   force =    -0.00005652    0.00000126    0.00374691

     Total force =     0.007690     Total SCF correction =     0.018905
     SCF correction compared to forces is large: reduce conv_thr to get better values

     BFGS Geometry Optimization
     Energy error            =      3.3E-05 Ry
     Gradient error          =      3.9E-03 Ry/Bohr

     number of scf cycles    =   1
     number of bfgs steps    =   0

     energy             new  =   -4845.1011045799 Ry

     new trust radius        =       0.0039237463 bohr
     new conv_thr            =       0.0000010000 Ry


ATOMIC_POSITIONS (angstrom)
Cu               0.0000000000        0.0000000000       -2.0842344718    0   0   0
Cu               2.5769773314        1.4878185560        0.0198587084    0   0   0
Cu               1.2857837666        0.7416207757        2.0876487428
Cu               1.2884886657        2.2317278340       -2.0842344718    0   0   0
Cu               3.8654659971        3.7195463900        0.0198587084    0   0   0
Cu               2.5744494976        2.9733285172        2.0879058867
Cu               2.5769773314        0.0000000000       -2.0842344718    0   0   0
Cu               5.1539546628        1.4878185560        0.0198587084    0   0   0
Cu               3.8626120136        0.7415417625        2.0881835591
Cu               3.8654659971        2.2317278340       -2.0842344718    0   0   0
Cu               6.4424433285        3.7195463900        0.0198587084    0   0   0
Cu               5.1512817552        2.9732590311        2.0885396594



     Writing config-only to output data dir ./output/opt.save/ :
     XML data file
     NEW-OLD atomic charge density approx. for the potential

     negative rho (up, down):  1.541E-03 0.000E+00

     total cpu time spent up to now is      535.2 secs

     Self-consistent Calculation

     iteration #  1     ecut=    40.00 Ry     beta= 0.10
     Davidson diagonalization with overlap
     ethr =  1.00E-06,  avg # of iterations = 30.5

     Threshold (ethr) on eigenvalues was too large:
     Diagonalizing with lowered threshold

     Davidson diagonalization with overlap
     ethr =  9.79E-08,  avg # of iterations = 34.6

     negative rho (up, down):  1.541E-03 0.000E+00

     total cpu time spent up to now is      555.6 secs

     total energy              =   -4845.10089272 Ry
     estimated scf accuracy    <       0.00029670 Ry

     total charge of GC-SCF    =       0.00433459 e
     the Fermi energy          =      -4.96910275 eV
                        (error :       0.06089725 eV)

     iteration #  2     ecut=    40.00 Ry     beta= 0.10
     Davidson diagonalization with overlap
     ethr =  1.30E-07,  avg # of iterations = 31.6

     negative rho (up, down):  1.542E-03 0.000E+00

     total cpu time spent up to now is      564.7 secs

     total energy              =   -4845.10118040 Ry
     estimated scf accuracy    <       0.00006091 Ry

     total charge of GC-SCF    =       0.00413930 e
     the Fermi energy          =      -5.06288954 eV
                        (error :       0.03288954 eV)

     iteration #  3     ecut=    40.00 Ry     beta= 0.10
     Davidson diagonalization with overlap
     ethr =  2.67E-08,  avg # of iterations = 23.4

     negative rho (up, down):  1.544E-03 0.000E+00

     total cpu time spent up to now is      571.9 secs

     total energy              =   -4845.10110364 Ry
     estimated scf accuracy    <       0.00003994 Ry

     total charge of GC-SCF    =       0.00388837 e
     the Fermi energy          =      -5.04908093 eV
                        (error :       0.01908093 eV)

     iteration #  4     ecut=    40.00 Ry     beta= 0.10
     Davidson diagonalization with overlap
     ethr =  1.75E-08,  avg # of iterations = 23.2

     negative rho (up, down):  1.550E-03 0.000E+00

     total cpu time spent up to now is      579.2 secs

     total energy              =   -4845.10102620 Ry
     estimated scf accuracy    <       0.00002090 Ry

     total charge of GC-SCF    =       0.00371162 e
     the Fermi energy          =      -5.03561359 eV
                        (error :       0.00561359 eV)

     iteration #  5     ecut=    40.00 Ry     beta= 0.10
     Davidson diagonalization with overlap
     ethr =  9.17E-09,  avg # of iterations = 46.5

     negative rho (up, down):  1.552E-03 0.000E+00

     total cpu time spent up to now is      592.9 secs

     total energy              =   -4845.10104052 Ry
     estimated scf accuracy    <       0.00000296 Ry

     total charge of GC-SCF    =       0.00362844 e
     the Fermi energy          =      -5.03672530 eV
                        (error :       0.00672530 eV)

     iteration #  6     ecut=    40.00 Ry     beta= 0.10
     Davidson diagonalization with overlap
     ethr =  1.30E-09,  avg # of iterations = 33.8

     negative rho (up, down):  1.560E-03 0.000E+00

     total cpu time spent up to now is      602.7 secs

     total energy              =   -4845.10102310 Ry
     estimated scf accuracy    <       0.00000213 Ry

     total charge of GC-SCF    =       0.00354184 e
     the Fermi energy          =      -5.03051173 eV
                        (error :       0.00051173 eV)

     iteration #  7     ecut=    40.00 Ry     beta= 0.10
     Davidson diagonalization with overlap
     ethr =  9.34E-10,  avg # of iterations = 39.8

     negative rho (up, down):  1.541E-03 0.000E+00

     total cpu time spent up to now is      615.3 secs

     End of self-consistent calculation

          k = 0.1250 0.0722 0.0000 ( 19861 PWs)   bands (ev):

  -117.5067-117.4991-117.4988-117.4987-117.2402-117.2327-117.2323-117.2321
  -117.2163-117.2087-117.2084-117.2084 -74.9339 -74.9339 -74.9307 -74.9072
   -74.8970 -74.8967 -74.8967 -74.8789 -74.8789 -74.8785 -74.8608 -74.8605
   -74.6886 -74.6886 -74.6767 -74.6667 -74.6667 -74.6548 -74.6372 -74.6288
   -74.6288 -74.6197 -74.6151 -74.6087 -74.6068 -74.6067 -74.5988 -74.5976
   -74.5923 -74.5918 -74.5916 -74.5865 -74.5712 -74.5644 -74.5641 -74.5641
   -13.4434 -11.4718  -9.9885  -9.7614  -9.6192  -9.6191  -9.4329  -9.3906
    -9.3905  -9.0540  -9.0179  -9.0178  -8.9107  -8.9084  -8.9083  -8.3356
    -8.3354  -8.3251  -7.9757  -7.9536  -7.9499  -7.9496  -7.9120  -7.8600
    -7.8535  -7.7649  -7.7648  -7.6936  -7.6638  -7.6586  -7.5700  -7.5336
    -7.5083  -7.5008  -7.5004  -7.1142  -7.1141  -7.0867  -7.0850  -7.0778
    -7.0129  -7.0086  -7.0085  -6.9405  -6.7732  -6.6922  -6.6784  -6.6784
    -6.6512  -6.6171  -6.6044  -6.6043  -6.5774  -6.5772  -6.5592  -6.5484
    -6.4531  -6.4530  -6.3732  -6.3732  -6.3646  -6.3408  -6.2293  -5.7490
    -5.0088  -5.0083  -4.7551  -4.6740  -3.9718  -3.9713  -2.9799  -2.9787
    -2.7243  -0.7364  -0.4505  -0.4207  -0.4194  -0.3694  -0.3014   0.2707
     0.3947   0.3948   0.5254   0.5713   1.5296   1.7513   1.7520   1.7725
     1.7853

          k = 0.1250 0.3608 0.0000 ( 19876 PWs)   bands (ev):

  -117.5050-117.5005-117.4996-117.4982-117.2385-117.2340-117.2330-117.2318
  -117.2146-117.2101-117.2092-117.2079 -74.9271 -74.9210 -74.9186 -74.9048
   -74.8989 -74.8976 -74.8959 -74.8916 -74.8824 -74.8773 -74.8744 -74.8639
   -74.6816 -74.6745 -74.6678 -74.6597 -74.6525 -74.6459 -74.6417 -74.6404
   -74.6326 -74.6237 -74.6196 -74.6184 -74.6151 -74.6106 -74.6017 -74.5972
   -74.5933 -74.5930 -74.5924 -74.5913 -74.5697 -74.5657 -74.5649 -74.5636
   -12.7276 -10.8189 -10.4364  -9.9197  -9.4925  -9.4758  -9.3076  -9.2409
    -9.1174  -8.9484  -8.8926  -8.8351  -8.6584  -8.6251  -8.6168  -8.3327
    -8.3174  -8.3120  -8.2352  -8.1150  -8.0769  -8.0203  -7.9547  -7.9522
    -7.8237  -7.7937  -7.7403  -7.7171  -7.6717  -7.6633  -7.6345  -7.6212
    -7.6125  -7.5317  -7.3982  -7.3775  -7.3763  -7.2917  -7.2863  -7.2570
    -7.2407  -7.2185  -7.2033  -7.1323  -7.0795  -7.0644  -7.0343  -6.9447
    -6.9246  -6.9178  -6.8503  -6.7688  -6.7630  -6.7052  -6.7003  -6.6065
    -6.6032  -6.5684  -6.5668  -6.5521  -6.4981  -6.4928  -6.4274  -5.9439
    -5.8801  -5.4953  -5.0694  -3.8701  -3.5165  -3.4064  -2.7547  -2.5980
    -1.9636  -0.2318  -0.0918   0.0600   0.2626   0.3927   0.5948   0.9037
     0.9847   1.1928   1.2452   1.8691   2.2385   2.3838   2.4250   2.5826
     2.7705

          k = 0.1250-0.5052 0.0000 ( 19917 PWs)   bands (ev):

  -117.5035-117.5020-117.4997-117.4981-117.2370-117.2354-117.2332-117.2316
  -117.2132-117.2116-117.2094-117.2078 -74.9205 -74.9173 -74.9051 -74.9029
   -74.9008 -74.8997 -74.8978 -74.8956 -74.8916 -74.8847 -74.8712 -74.8665
   -74.6693 -74.6691 -74.6596 -74.6555 -74.6490 -74.6473 -74.6472 -74.6377
   -74.6377 -74.6335 -74.6270 -74.6222 -74.6156 -74.6152 -74.6002 -74.5959
   -74.5945 -74.5931 -74.5926 -74.5912 -74.5684 -74.5670 -74.5650 -74.5635
   -12.0525 -11.2412 -10.2624  -9.9433  -9.7487  -9.2161  -9.1291  -9.0646
    -8.9753  -8.9249  -8.7463  -8.7344  -8.5719  -8.5353  -8.4929  -8.3760
    -8.3517  -8.3418  -8.2542  -8.2534  -8.1430  -8.1429  -7.9551  -7.9512
    -7.8534  -7.8227  -7.7542  -7.7357  -7.7296  -7.7159  -7.7109  -7.6687
    -7.6507  -7.5841  -7.5647  -7.5265  -7.5207  -7.5023  -7.4604  -7.4387
    -7.3814  -7.2173  -7.2061  -7.1532  -7.0994  -7.0870  -7.0652  -7.0362
    -7.0047  -6.9659  -6.8799  -6.8426  -6.8405  -6.7715  -6.7618  -6.7158
    -6.6612  -6.6015  -6.5648  -6.5601  -6.5514  -6.4985  -6.4969  -6.4327
    -5.8342  -5.0553  -4.9527  -4.2656  -3.8597  -2.6361  -2.5631  -2.5093
    -1.4548  -0.7080   0.4615   0.5293   0.5499   0.9739   1.0906   1.3947
     1.4470   1.6970   1.7664   1.8655   1.9171   2.0232   2.4848   2.6388
     2.7602

          k = 0.1250-0.2165 0.0000 ( 19876 PWs)   bands (ev):

  -117.5061-117.4994-117.4994-117.4985-117.2396-117.2329-117.2329-117.2319
  -117.2157-117.2090-117.2090-117.2081 -74.9300 -74.9283 -74.9283 -74.9064
   -74.8975 -74.8974 -74.8962 -74.8862 -74.8775 -74.8775 -74.8685 -74.8598
   -74.6827 -74.6827 -74.6761 -74.6608 -74.6608 -74.6542 -74.6446 -74.6280
   -74.6280 -74.6272 -74.6226 -74.6080 -74.6059 -74.6059 -74.6052 -74.5982
   -74.5924 -74.5923 -74.5914 -74.5859 -74.5707 -74.5647 -74.5646 -74.5638
   -13.2009 -11.2458  -9.8621  -9.8621  -9.8109  -9.4399  -9.3999  -9.3999
    -9.2774  -9.0076  -9.0075  -8.9417  -8.8058  -8.8058  -8.7886  -8.3323
    -8.3214  -8.3211  -8.0853  -7.9410  -7.9228  -7.9223  -7.9203  -7.9160
    -7.9036  -7.7726  -7.7697  -7.7694  -7.6587  -7.6250  -7.5859  -7.5775
    -7.5772  -7.5429  -7.4242  -7.2381  -7.2032  -7.2030  -7.1817  -7.1033
    -7.0564  -7.0299  -7.0299  -7.0033  -6.9062  -6.8802  -6.8289  -6.8289
    -6.7360  -6.7359  -6.7129  -6.6982  -6.6406  -6.6406  -6.6159  -6.5786
    -6.5606  -6.4982  -6.4982  -6.4640  -6.4639  -6.4509  -5.9382  -5.9380
    -5.9305  -5.0211  -5.0208  -4.2803  -4.1583  -3.3325  -2.7934  -2.5854
    -2.5849  -0.5211  -0.4418  -0.2126  -0.0705   0.0295   0.0302   0.5089
     0.7471   0.8361   1.0002   1.0004   1.6322   1.7660   1.8461   1.8466
     1.9888

          k = 0.3750-0.0722 0.0000 ( 19876 PWs)   bands (ev):

  -117.5050-117.5005-117.4996-117.4982-117.2385-117.2340-117.2331-117.2317
  -117.2146-117.2101-117.2092-117.2079 -74.9271 -74.9210 -74.9186 -74.9048
   -74.8989 -74.8976 -74.8959 -74.8916 -74.8824 -74.8773 -74.8744 -74.8639
   -74.6816 -74.6744 -74.6678 -74.6597 -74.6525 -74.6459 -74.6416 -74.6404
   -74.6326 -74.6237 -74.6196 -74.6184 -74.6151 -74.6106 -74.6017 -74.5972
   -74.5933 -74.5930 -74.5925 -74.5913 -74.5697 -74.5657 -74.5649 -74.5636
   -12.7276 -10.8189 -10.4365  -9.9197  -9.4926  -9.4758  -9.3076  -9.2409
    -9.1174  -8.9486  -8.8927  -8.8350  -8.6584  -8.6251  -8.6168  -8.3326
    -8.3173  -8.3122  -8.2350  -8.1148  -8.0769  -8.0206  -7.9546  -7.9521
    -7.8239  -7.7931  -7.7397  -7.7171  -7.6715  -7.6634  -7.6345  -7.6214
    -7.6125  -7.5321  -7.3981  -7.3775  -7.3763  -7.2916  -7.2862  -7.2569
    -7.2407  -7.2185  -7.2031  -7.1323  -7.0794  -7.0644  -7.0345  -6.9448
    -6.9247  -6.9179  -6.8502  -6.7688  -6.7630  -6.7052  -6.7004  -6.6066
    -6.6031  -6.5681  -6.5668  -6.5520  -6.4984  -6.4929  -6.4274  -5.9437
    -5.8801  -5.4954  -5.0694  -3.8700  -3.5166  -3.4063  -2.7550  -2.5979
    -1.9645  -0.2322  -0.0918   0.0611   0.2626   0.3927   0.5948   0.9038
     0.9847   1.1928   1.2452   1.8691   2.2385   2.3844   2.4250   2.5822
     2.7705

          k = 0.3750 0.2165 0.0000 ( 19929 PWs)   bands (ev):

  -117.5045-117.5013-117.4988-117.4987-117.2380-117.2348-117.2323-117.2322
  -117.2141-117.2110-117.2084-117.2084 -74.9245 -74.9245 -74.9103 -74.9042
   -74.8998 -74.8966 -74.8966 -74.8884 -74.8883 -74.8811 -74.8733 -74.8660
   -74.6810 -74.6810 -74.6591 -74.6591 -74.6569 -74.6365 -74.6365 -74.6349
   -74.6321 -74.6287 -74.6248 -74.6145 -74.6145 -74.6100 -74.6067 -74.6028
   -74.5968 -74.5940 -74.5918 -74.5917 -74.5693 -74.5664 -74.5641 -74.5641
   -12.4985 -10.8994 -10.6242  -9.6313  -9.4374  -9.4374  -9.3650  -9.1431
    -9.1431  -8.9706  -8.8170  -8.8169  -8.6133  -8.5647  -8.5647  -8.2970
    -8.2944  -8.2943  -8.2932  -8.1602  -8.1601  -8.1557  -7.9436  -7.9219
    -7.7668  -7.7664  -7.7552  -7.6893  -7.6892  -7.6724  -7.6076  -7.6061
    -7.5876  -7.4981  -7.4737  -7.4664  -7.4664  -7.3877  -7.3877  -7.3834
    -7.3457  -7.2119  -7.1994  -7.1276  -7.1275  -7.1221  -7.0534  -6.9627
    -6.9491  -6.9489  -6.8356  -6.7948  -6.7928  -6.7928  -6.7918  -6.7339
    -6.7039  -6.5649  -6.5649  -6.5422  -6.5211  -6.4603  -6.4602  -6.3798
    -5.3120  -5.0285  -5.0284  -3.9499  -3.9056  -3.9055  -3.1832  -1.5785
    -1.5781  -0.9553   0.1219   0.4977   0.4983   0.4998   0.6249   1.2223
     1.4163   1.6988   1.6989   1.7740   2.3735   2.4506   2.4510   2.4742
     2.4820

          k = 0.3750-0.6495 0.0000 ( 19872 PWs)   bands (ev):

  -117.5023-117.5023-117.5009-117.4978-117.2358-117.2358-117.2344-117.2313
  -117.2119-117.2119-117.2106-117.2075 -74.9179 -74.9106 -74.9063 -74.9014
   -74.9014 -74.8994 -74.8989 -74.8989 -74.8952 -74.8771 -74.8732 -74.8732
   -74.6753 -74.6681 -74.6537 -74.6528 -74.6487 -74.6486 -74.6462 -74.6312
   -74.6294 -74.6294 -74.6267 -74.6267 -74.6249 -74.6073 -74.6073 -74.6029
   -74.5949 -74.5948 -74.5935 -74.5909 -74.5673 -74.5673 -74.5661 -74.5632
   -11.4215 -11.4214 -10.6728  -9.8130  -9.8130  -9.4225  -8.8549  -8.8500
    -8.8499  -8.8274  -8.6660  -8.6506  -8.6267  -8.5988  -8.4852  -8.4672
    -8.4672  -8.3095  -8.3095  -8.2190  -8.0511  -8.0452  -8.0206  -8.0205
    -8.0011  -7.9273  -7.9264  -7.9263  -7.8611  -7.8611  -7.7065  -7.6487
    -7.6455  -7.6211  -7.5547  -7.5442  -7.5437  -7.5332  -7.4540  -7.4538
    -7.2840  -7.2838  -7.1723  -7.1234  -7.0650  -7.0650  -7.0584  -7.0380
    -6.9699  -6.9699  -6.8989  -6.7620  -6.7619  -6.6996  -6.6962  -6.6961
    -6.6479  -6.6199  -6.6077  -6.6075  -6.5885  -6.5859  -6.4181  -6.4180
    -6.3489  -5.9073  -4.4054  -4.4053  -3.6381  -2.4013  -1.7102  -1.7101
    -1.0685  -0.6626  -0.5828  -0.5425   1.1679   1.1933   1.1934   1.3146
     1.6836   1.6836   1.7913   1.7913   2.0458   2.3121   2.4074   2.4074
     2.5432

          k = 0.3750-0.3608 0.0000 ( 19917 PWs)   bands (ev):

  -117.5036-117.5020-117.4997-117.4981-117.2370-117.2354-117.2333-117.2316
  -117.2132-117.2116-117.2094-117.2078 -74.9205 -74.9173 -74.9050 -74.9029
   -74.9008 -74.8997 -74.8978 -74.8956 -74.8915 -74.8847 -74.8712 -74.8665
   -74.6694 -74.6690 -74.6596 -74.6555 -74.6490 -74.6473 -74.6472 -74.6377
   -74.6376 -74.6335 -74.6270 -74.6223 -74.6156 -74.6152 -74.6002 -74.5959
   -74.5945 -74.5931 -74.5926 -74.5912 -74.5684 -74.5670 -74.5650 -74.5635
   -12.0525 -11.2412 -10.2624  -9.9432  -9.7487  -9.2161  -9.1292  -9.0646
    -8.9752  -8.9251  -8.7464  -8.7344  -8.5718  -8.5352  -8.4928  -8.3758
    -8.3517  -8.3417  -8.2542  -8.2533  -8.1431  -8.1429  -7.9548  -7.9511
    -7.8533  -7.8226  -7.7542  -7.7355  -7.7296  -7.7160  -7.7109  -7.6689
    -7.6509  -7.5842  -7.5647  -7.5264  -7.5207  -7.5023  -7.4605  -7.4388
    -7.3815  -7.2172  -7.2061  -7.1532  -7.0995  -7.0871  -7.0651  -7.0362
    -7.0048  -6.9659  -6.8800  -6.8426  -6.8405  -6.7715  -6.7618  -6.7158
    -6.6614  -6.6014  -6.5646  -6.5601  -6.5513  -6.4987  -6.4970  -6.4327
    -5.8342  -5.0553  -4.9527  -4.2656  -3.8597  -2.6361  -2.5633  -2.5093
    -1.4550  -0.7081   0.4613   0.5296   0.5499   0.9739   1.0906   1.3947
     1.4472   1.6970   1.7666   1.8655   1.9171   2.0232   2.4848   2.6388
     2.7602

     the Fermi energy is    -5.0238 ev

!    total energy              =   -4845.10099891 Ry
     estimated scf accuracy    <       0.00000092 Ry

!    total charge of GC-SCF    =       0.00732800 e
     smearing contrib. (-TS)   =      -0.00790523 Ry
     internal energy E=F+TS    =   -4845.09309367 Ry

     The total energy is F=E-TS. E is the sum of the following terms:
     one-electron contribution = -423864.70611031 Ry
     hartree contribution      =  211890.97235510 Ry
     xc contribution           =    -465.27989416 Ry
     ewald contribution        =  207593.92326484 Ry
     pot.stat. contrib. (-muN) =      -0.00270915 Ry

     convergence has been achieved in   7 iterations

     negative rho (up, down):  1.541E-03 0.000E+00

     Forces acting on atoms (cartesian axes, Ry/au):

     atom    1 type  1   force =     0.00021791    0.00013805   -0.00237372
     atom    2 type  1   force =    -0.00008890   -0.00007006   -0.01516832
     atom    3 type  1   force =    -0.00012494   -0.00005178   -0.01951213
     atom    4 type  1   force =     0.00021858    0.00013379   -0.00237116
     atom    5 type  1   force =    -0.00008206   -0.00008604   -0.01515967
     atom    6 type  1   force =    -0.00011380   -0.00009073   -0.01953795
     atom    7 type  1   force =     0.00022202    0.00013658   -0.00237180
     atom    8 type  1   force =    -0.00011121   -0.00006324   -0.01515146
     atom    9 type  1   force =    -0.00013257   -0.00003212   -0.01952284
     atom   10 type  1   force =     0.00022207    0.00013175   -0.00237177
     atom   11 type  1   force =    -0.00010328   -0.00007758   -0.01513751
     atom   12 type  1   force =    -0.00012382   -0.00006862   -0.01954142

     Total force =     0.039058     Total SCF correction =     0.078712
     SCF correction compared to forces is large: reduce conv_thr to get better values
     Energy error            =      1.1E-04 Ry
     Gradient error          =      2.0E-02 Ry/Bohr

     number of scf cycles    =   2
     number of bfgs steps    =   1

     energy             old  =   -4845.1011045799 Ry
     energy             new  =   -4845.1009989066 Ry

     CASE: energy            _new > energy            _old

     new trust radius        =       0.0007040028 bohr
     new conv_thr            =       0.0000010000 Ry


ATOMIC_POSITIONS (angstrom)
Cu               0.0000000000        0.0000000000       -2.0842344718    0   0   0
Cu               2.5769773314        1.4878185560        0.0198587084    0   0   0
Cu               1.2858096064        0.7416271860        2.0859451359
Cu               1.2884886657        2.2317278340       -2.0842344718    0   0   0
Cu               3.8654659971        3.7195463900        0.0198587084    0   0   0
Cu               2.5744933802        2.9733223542        2.0862166141
Cu               2.5769773314        0.0000000000       -2.0842344718    0   0   0
Cu               5.1539546628        1.4878185560        0.0198587084    0   0   0
Cu               3.8626172306        0.7415526961        2.0865266665
Cu               3.8654659971        2.2317278340       -2.0842344718    0   0   0
Cu               6.4424433285        3.7195463900        0.0198587084    0   0   0
Cu               5.1513062962        2.9732584842        2.0869126323



     Writing config-only to output data dir ./output/opt.save/ :
     XML data file
     NEW-OLD atomic charge density approx. for the potential

     negative rho (up, down):  1.549E-03 0.000E+00

     total cpu time spent up to now is      616.0 secs

     Self-consistent Calculation

     iteration #  1     ecut=    40.00 Ry     beta= 0.10
     Davidson diagonalization with overlap
     ethr =  1.00E-06,  avg # of iterations = 42.5

     negative rho (up, down):  1.547E-03 0.000E+00

     total cpu time spent up to now is      628.9 secs

     total energy              =   -4845.10419327 Ry
     estimated scf accuracy    <       0.00210962 Ry

     total charge of GC-SCF    =       0.00422158 e
     the Fermi energy          =      -5.55091073 eV
                        (error :       0.52091073 eV)

     iteration #  2     ecut=    40.00 Ry     beta= 0.10
     Davidson diagonalization with overlap
     ethr =  9.25E-07,  avg # of iterations = 34.9

     negative rho (up, down):  1.546E-03 0.000E+00

     total cpu time spent up to now is      638.5 secs

     total energy              =   -4845.10131896 Ry
     estimated scf accuracy    <       0.00014102 Ry

     total charge of GC-SCF    =       0.00314174 e
     the Fermi energy          =      -5.18735517 eV
                        (error :       0.15735517 eV)

     iteration #  3     ecut=    40.00 Ry     beta= 0.10
     Davidson diagonalization with overlap
     ethr =  6.19E-08,  avg # of iterations = 49.6

     negative rho (up, down):  1.545E-03 0.000E+00

     total cpu time spent up to now is      652.3 secs

     total energy              =   -4845.10111428 Ry
     estimated scf accuracy    <       0.00010848 Ry

     total charge of GC-SCF    =       0.00295941 e
     the Fermi energy          =      -5.06071409 eV
                        (error :       0.03071409 eV)

     iteration #  4     ecut=    40.00 Ry     beta= 0.10
     Davidson diagonalization with overlap
     ethr =  4.76E-08,  avg # of iterations = 37.1

     negative rho (up, down):  1.543E-03 0.000E+00

     total cpu time spent up to now is      662.9 secs

     total energy              =   -4845.10112570 Ry
     estimated scf accuracy    <       0.00001865 Ry

     total charge of GC-SCF    =       0.00280958 e
     the Fermi energy          =      -5.03587908 eV
                        (error :       0.00587908 eV)

     iteration #  5     ecut=    40.00 Ry     beta= 0.10
     Davidson diagonalization with overlap
     ethr =  8.18E-09,  avg # of iterations = 46.8

     negative rho (up, down):  1.542E-03 0.000E+00

     total cpu time spent up to now is      676.3 secs

     total energy              =   -4845.10114430 Ry
     estimated scf accuracy    <       0.00001018 Ry

     total charge of GC-SCF    =       0.00302572 e
     the Fermi energy          =      -5.01331874 eV
                        (error :       0.01668126 eV)

     iteration #  6     ecut=    40.00 Ry     beta= 0.10
     Davidson diagonalization with overlap
     ethr =  4.46E-09,  avg # of iterations = 29.5

     negative rho (up, down):  1.542E-03 0.000E+00

     total cpu time spent up to now is      685.5 secs

     total energy              =   -4845.10116660 Ry
     estimated scf accuracy    <       0.00000459 Ry

     total charge of GC-SCF    =       0.00310066 e
     the Fermi energy          =      -5.03196780 eV
                        (error :       0.00196780 eV)

     iteration #  7     ecut=    40.00 Ry     beta= 0.10
     Davidson diagonalization with overlap
     ethr =  2.01E-09,  avg # of iterations = 45.2

     negative rho (up, down):  1.540E-03 0.000E+00

     total cpu time spent up to now is      699.5 secs

     total energy              =   -4845.10115343 Ry
     estimated scf accuracy    <       0.00000175 Ry

     total charge of GC-SCF    =       0.00306911 e
     the Fermi energy          =      -5.02974577 eV
                        (error :       0.00025423 eV)

     iteration #  8     ecut=    40.00 Ry     beta= 0.10
     Davidson diagonalization with overlap
     ethr =  7.66E-10,  avg # of iterations = 21.2

     negative rho (up, down):  1.537E-03 0.000E+00

     total cpu time spent up to now is      706.7 secs

     total energy              =   -4845.10115585 Ry
     estimated scf accuracy    <       0.00000158 Ry

     total charge of GC-SCF    =       0.00309594 e
     the Fermi energy          =      -5.02870388 eV
                        (error :       0.00129612 eV)

     iteration #  9     ecut=    40.00 Ry     beta= 0.10
     Davidson diagonalization with overlap
     ethr =  6.92E-10,  avg # of iterations = 22.1

     negative rho (up, down):  1.536E-03 0.000E+00

     total cpu time spent up to now is      714.3 secs

     total energy              =   -4845.10115534 Ry
     estimated scf accuracy    <       0.00000136 Ry

     total charge of GC-SCF    =       0.00311747 e
     the Fermi energy          =      -5.02987600 eV
                        (error :       0.00012400 eV)

     iteration # 10     ecut=    40.00 Ry     beta= 0.10
     Davidson diagonalization with overlap
     ethr =  5.95E-10,  avg # of iterations = 32.4

     negative rho (up, down):  1.540E-03 0.000E+00

     total cpu time spent up to now is      723.8 secs

     End of self-consistent calculation

          k = 0.1250 0.0722 0.0000 ( 19861 PWs)   bands (ev):

  -117.5144-117.5067-117.5064-117.5064-117.2483-117.2409-117.2405-117.2402
  -117.2240-117.2164-117.2161-117.2161 -74.9412 -74.9412 -74.9384 -74.9152
   -74.9050 -74.9046 -74.9046 -74.8865 -74.8865 -74.8857 -74.8681 -74.8680
   -74.6966 -74.6966 -74.6849 -74.6744 -74.6743 -74.6626 -74.6452 -74.6370
   -74.6370 -74.6277 -74.6227 -74.6169 -74.6145 -74.6145 -74.6070 -74.6053
   -74.6005 -74.6000 -74.5998 -74.5943 -74.5789 -74.5721 -74.5718 -74.5718
   -13.4523 -11.4793  -9.9960  -9.7702  -9.6279  -9.6278  -9.4417  -9.3994
    -9.3994  -9.0623  -9.0265  -9.0264  -8.9189  -8.9165  -8.9165  -8.3438
    -8.3436  -8.3334  -7.9835  -7.9605  -7.9570  -7.9566  -7.9191  -7.8674
    -7.8613  -7.7738  -7.7737  -7.7023  -7.6720  -7.6672  -7.5778  -7.5417
    -7.5162  -7.5089  -7.5086  -7.1218  -7.1216  -7.0940  -7.0927  -7.0854
    -7.0208  -7.0164  -7.0163  -6.9478  -6.7810  -6.6991  -6.6857  -6.6857
    -6.6585  -6.6244  -6.6118  -6.6117  -6.5845  -6.5843  -6.5663  -6.5555
    -6.4607  -6.4606  -6.3809  -6.3809  -6.3726  -6.3484  -6.2350  -5.7566
    -5.0163  -5.0159  -4.7591  -4.6810  -3.9789  -3.9784  -2.9867  -2.9856
    -2.7304  -0.7426  -0.4568  -0.4266  -0.4253  -0.3752  -0.3065   0.2681
     0.3897   0.3899   0.5225   0.5655   1.5278   1.7471   1.7478   1.7677
     1.7812

          k = 0.1250 0.3608 0.0000 ( 19876 PWs)   bands (ev):

  -117.5127-117.5081-117.5072-117.5059-117.2466-117.2422-117.2412-117.2399
  -117.2223-117.2178-117.2169-117.2156 -74.9344 -74.9286 -74.9259 -74.9128
   -74.9068 -74.9055 -74.9039 -74.8992 -74.8897 -74.8848 -74.8820 -74.8713
   -74.6896 -74.6825 -74.6760 -74.6673 -74.6602 -74.6536 -74.6498 -74.6485
   -74.6407 -74.6319 -74.6274 -74.6260 -74.6233 -74.6182 -74.6094 -74.6054
   -74.6015 -74.6008 -74.6006 -74.5995 -74.5774 -74.5733 -74.5725 -74.5713
   -12.7366 -10.8266 -10.4456  -9.9288  -9.5003  -9.4842  -9.3163  -9.2499
    -9.1262  -8.9567  -8.9009  -8.8438  -8.6667  -8.6334  -8.6252  -8.3410
    -8.3257  -8.3204  -8.2433  -8.1235  -8.0850  -8.0285  -7.9621  -7.9599
    -7.8311  -7.8010  -7.7481  -7.7248  -7.6796  -7.6713  -7.6428  -7.6291
    -7.6204  -7.5399  -7.4059  -7.3851  -7.3840  -7.2996  -7.2939  -7.2648
    -7.2485  -7.2263  -7.2108  -7.1399  -7.0872  -7.0724  -7.0418  -6.9519
    -6.9317  -6.9250  -6.8575  -6.7763  -6.7701  -6.7124  -6.7073  -6.6139
    -6.6104  -6.5755  -6.5739  -6.5594  -6.5054  -6.5000  -6.4350  -5.9505
    -5.8878  -5.5005  -5.0763  -3.8779  -3.5206  -3.4105  -2.7620  -2.6023
    -1.9708  -0.2357  -0.0975   0.0541   0.2551   0.3888   0.5900   0.8989
     0.9821   1.1898   1.2387   1.8624   2.2367   2.3792   2.4198   2.5771
     2.7649

          k = 0.1250-0.5052 0.0000 ( 19917 PWs)   bands (ev):

  -117.5112-117.5096-117.5074-117.5058-117.2452-117.2436-117.2414-117.2398
  -117.2208-117.2192-117.2170-117.2155 -74.9282 -74.9248 -74.9125 -74.9108
   -74.9087 -74.9070 -74.9057 -74.9036 -74.8988 -74.8921 -74.8787 -74.8742
   -74.6774 -74.6772 -74.6677 -74.6636 -74.6570 -74.6550 -74.6549 -74.6458
   -74.6453 -74.6412 -74.6346 -74.6304 -74.6234 -74.6233 -74.6079 -74.6041
   -74.6027 -74.6008 -74.6008 -74.5994 -74.5761 -74.5747 -74.5726 -74.5712
   -12.0616 -11.2503 -10.2702  -9.9526  -9.7568  -9.2247  -9.1371  -9.0741
    -8.9840  -8.9332  -8.7548  -8.7429  -8.5806  -8.5439  -8.5012  -8.3842
    -8.3599  -8.3503  -8.2623  -8.2615  -8.1513  -8.1510  -7.9626  -7.9586
    -7.8611  -7.8305  -7.7618  -7.7432  -7.7376  -7.7240  -7.7188  -7.6764
    -7.6581  -7.5916  -7.5724  -7.5345  -7.5286  -7.5099  -7.4685  -7.4464
    -7.3890  -7.2248  -7.2134  -7.1605  -7.1072  -7.0943  -7.0724  -7.0441
    -7.0118  -6.9736  -6.8877  -6.8496  -6.8478  -6.7793  -6.7688  -6.7233
    -6.6681  -6.6087  -6.5719  -6.5674  -6.5584  -6.5058  -6.5041  -6.4392
    -5.8418  -5.0621  -4.9574  -4.2699  -3.8675  -2.6403  -2.5671  -2.5162
    -1.4587  -0.7149   0.4557   0.5255   0.5447   0.9653   1.0877   1.3898
     1.4397   1.6943   1.7600   1.8623   1.9074   2.0215   2.4778   2.6364
     2.7564

          k = 0.1250-0.2165 0.0000 ( 19876 PWs)   bands (ev):

  -117.5138-117.5070-117.5070-117.5061-117.2477-117.2411-117.2410-117.2401
  -117.2234-117.2167-117.2167-117.2158 -74.9377 -74.9357 -74.9357 -74.9143
   -74.9054 -74.9054 -74.9041 -74.8934 -74.8851 -74.8851 -74.8757 -74.8675
   -74.6907 -74.6907 -74.6843 -74.6684 -74.6684 -74.6620 -74.6526 -74.6362
   -74.6361 -74.6352 -74.6302 -74.6162 -74.6137 -74.6136 -74.6128 -74.6064
   -74.6006 -74.6005 -74.5996 -74.5937 -74.5784 -74.5723 -74.5723 -74.5715
   -13.2099 -11.2534  -9.8712  -9.8711  -9.8184  -9.4486  -9.4086  -9.4086
    -9.2864  -9.0161  -9.0160  -8.9504  -8.8141  -8.8141  -8.7967  -8.3407
    -8.3296  -8.3293  -8.0932  -7.9492  -7.9300  -7.9295  -7.9289  -7.9227
    -7.9107  -7.7805  -7.7782  -7.7779  -7.6665  -7.6334  -7.5939  -7.5857
    -7.5854  -7.5510  -7.4320  -7.2458  -7.2106  -7.2105  -7.1892  -7.1109
    -7.0641  -7.0378  -7.0378  -7.0107  -6.9132  -6.8879  -6.8366  -6.8366
    -6.7432  -6.7431  -6.7203  -6.7055  -6.6478  -6.6478  -6.6230  -6.5859
    -6.5678  -6.5057  -6.5057  -6.4713  -6.4713  -6.4583  -5.9457  -5.9456
    -5.9360  -5.0279  -5.0276  -4.2844  -4.1661  -3.3400  -2.8005  -2.5902
    -2.5898  -0.5271  -0.4478  -0.2193  -0.0753   0.0227   0.0235   0.5062
     0.7442   0.8315   0.9955   0.9956   1.6281   1.7642   1.8408   1.8414
     1.9839

          k = 0.3750-0.0722 0.0000 ( 19876 PWs)   bands (ev):

  -117.5127-117.5081-117.5072-117.5059-117.2466-117.2421-117.2413-117.2399
  -117.2223-117.2178-117.2169-117.2156 -74.9345 -74.9287 -74.9259 -74.9128
   -74.9068 -74.9056 -74.9039 -74.8992 -74.8896 -74.8848 -74.8820 -74.8713
   -74.6896 -74.6825 -74.6760 -74.6673 -74.6602 -74.6536 -74.6498 -74.6484
   -74.6406 -74.6319 -74.6274 -74.6260 -74.6233 -74.6182 -74.6094 -74.6054
   -74.6014 -74.6008 -74.6007 -74.5994 -74.5774 -74.5733 -74.5725 -74.5713
   -12.7366 -10.8266 -10.4456  -9.9288  -9.5004  -9.4842  -9.3163  -9.2499
    -9.1262  -8.9569  -8.9010  -8.8438  -8.6667  -8.6334  -8.6252  -8.3409
    -8.3256  -8.3205  -8.2431  -8.1233  -8.0850  -8.0288  -7.9620  -7.9597
    -7.8312  -7.8005  -7.7475  -7.7248  -7.6795  -7.6714  -7.6428  -7.6293
    -7.6204  -7.5403  -7.4058  -7.3852  -7.3840  -7.2995  -7.2937  -7.2647
    -7.2485  -7.2263  -7.2106  -7.1399  -7.0872  -7.0723  -7.0420  -6.9519
    -6.9318  -6.9251  -6.8574  -6.7763  -6.7701  -6.7124  -6.7074  -6.6140
    -6.6103  -6.5752  -6.5738  -6.5593  -6.5056  -6.5001  -6.4350  -5.9503
    -5.8878  -5.5006  -5.0763  -3.8778  -3.5207  -3.4105  -2.7622  -2.6023
    -1.9717  -0.2361  -0.0975   0.0552   0.2551   0.3888   0.5901   0.8990
     0.9821   1.1898   1.2387   1.8625   2.2367   2.3799   2.4198   2.5768
     2.7649

          k = 0.3750 0.2165 0.0000 ( 19929 PWs)   bands (ev):

  -117.5121-117.5090-117.5064-117.5064-117.2461-117.2430-117.2405-117.2404
  -117.2218-117.2186-117.2161-117.2161 -74.9318 -74.9318 -74.9180 -74.9121
   -74.9078 -74.9045 -74.9045 -74.8960 -74.8960 -74.8888 -74.8805 -74.8732
   -74.6890 -74.6890 -74.6667 -74.6667 -74.6651 -74.6447 -74.6447 -74.6427
   -74.6401 -74.6369 -74.6328 -74.6222 -74.6222 -74.6176 -74.6144 -74.6104
   -74.6049 -74.6022 -74.6000 -74.5999 -74.5769 -74.5741 -74.5718 -74.5718
   -12.5075 -10.9086 -10.6319  -9.6396  -9.4467  -9.4466  -9.3728  -9.1517
    -9.1517  -8.9786  -8.8255  -8.8254  -8.6216  -8.5733  -8.5733  -8.3055
    -8.3025  -8.3024  -8.3014  -8.1688  -8.1687  -8.1639  -7.9509  -7.9292
    -7.7743  -7.7739  -7.7629  -7.6971  -7.6970  -7.6798  -7.6151  -7.6148
    -7.5959  -7.5064  -7.4812  -7.4741  -7.4741  -7.3956  -7.3956  -7.3908
    -7.3536  -7.2191  -7.2073  -7.1352  -7.1351  -7.1300  -7.0611  -6.9699
    -6.9564  -6.9562  -6.8433  -6.8024  -6.7998  -6.7998  -6.7985  -6.7418
    -6.7115  -6.5720  -6.5720  -6.5491  -6.5280  -6.4674  -6.4673  -6.3862
    -5.3171  -5.0360  -5.0360  -3.9541  -3.9124  -3.9123  -3.1872  -1.5833
    -1.5829  -0.9591   0.1164   0.4906   0.4912   0.4920   0.6213   1.2196
     1.4132   1.6939   1.6940   1.7693   2.3637   2.4454   2.4458   2.4724
     2.4802

          k = 0.3750-0.6495 0.0000 ( 19872 PWs)   bands (ev):

  -117.5100-117.5099-117.5086-117.5054-117.2440-117.2440-117.2425-117.2395
  -117.2196-117.2196-117.2183-117.2151 -74.9252 -74.9179 -74.9140 -74.9093
   -74.9093 -74.9074 -74.9066 -74.9066 -74.9031 -74.8848 -74.8805 -74.8805
   -74.6833 -74.6761 -74.6617 -74.6607 -74.6568 -74.6568 -74.6538 -74.6390
   -74.6375 -74.6374 -74.6344 -74.6344 -74.6332 -74.6150 -74.6150 -74.6107
   -74.6031 -74.6030 -74.6017 -74.5991 -74.5750 -74.5750 -74.5737 -74.5709
   -11.4306 -11.4305 -10.6820  -9.8211  -9.8210  -9.4308  -8.8647  -8.8582
    -8.8582  -8.8361  -8.6749  -8.6590  -8.6357  -8.6069  -8.4936  -8.4756
    -8.4755  -8.3177  -8.3176  -8.2272  -8.0589  -8.0535  -8.0284  -8.0282
    -8.0092  -7.9349  -7.9343  -7.9342  -7.8691  -7.8690  -7.7142  -7.6565
    -7.6531  -7.6290  -7.5620  -7.5516  -7.5512  -7.5409  -7.4616  -7.4614
    -7.2918  -7.2915  -7.1801  -7.1305  -7.0726  -7.0725  -7.0653  -7.0456
    -6.9774  -6.9774  -6.9061  -6.7697  -6.7697  -6.7068  -6.7036  -6.7036
    -6.6551  -6.6273  -6.6148  -6.6146  -6.5955  -6.5930  -6.4247  -6.4246
    -6.3565  -5.9141  -4.4098  -4.4097  -3.6423  -2.4091  -1.7141  -1.7140
    -1.0758  -0.6664  -0.5905  -0.5503   1.1614   1.1884   1.1884   1.3089
     1.6742   1.6742   1.7894   1.7894   2.0412   2.3075   2.4049   2.4049
     2.5396

          k = 0.3750-0.3608 0.0000 ( 19917 PWs)   bands (ev):

  -117.5112-117.5096-117.5074-117.5058-117.2452-117.2436-117.2414-117.2398
  -117.2208-117.2192-117.2170-117.2155 -74.9282 -74.9248 -74.9124 -74.9108
   -74.9087 -74.9070 -74.9057 -74.9036 -74.8988 -74.8921 -74.8787 -74.8742
   -74.6775 -74.6771 -74.6677 -74.6636 -74.6570 -74.6550 -74.6549 -74.6458
   -74.6453 -74.6411 -74.6346 -74.6304 -74.6234 -74.6233 -74.6079 -74.6041
   -74.6026 -74.6009 -74.6008 -74.5993 -74.5761 -74.5747 -74.5726 -74.5712
   -12.0616 -11.2504 -10.2703  -9.9525  -9.7569  -9.2247  -9.1373  -9.0741
    -8.9840  -8.9334  -8.7549  -8.7428  -8.5805  -8.5438  -8.5011  -8.3840
    -8.3599  -8.3502  -8.2623  -8.2614  -8.1514  -8.1510  -7.9622  -7.9585
    -7.8611  -7.8305  -7.7618  -7.7431  -7.7375  -7.7240  -7.7188  -7.6766
    -7.6583  -7.5916  -7.5724  -7.5343  -7.5286  -7.5099  -7.4686  -7.4466
    -7.3890  -7.2247  -7.2134  -7.1604  -7.1072  -7.0944  -7.0723  -7.0441
    -7.0118  -6.9737  -6.8878  -6.8496  -6.8478  -6.7793  -6.7689  -6.7233
    -6.6682  -6.6086  -6.5717  -6.5673  -6.5583  -6.5059  -6.5043  -6.4393
    -5.8418  -5.0622  -4.9574  -4.2699  -3.8675  -2.6403  -2.5672  -2.5162
    -1.4589  -0.7149   0.4556   0.5258   0.5447   0.9653   1.0877   1.3898
     1.4399   1.6943   1.7602   1.8623   1.9074   2.0215   2.4778   2.6364
     2.7564

     the Fermi energy is    -5.0302 ev

!    total energy              =   -4845.10110177 Ry
     estimated scf accuracy    <       0.00000017 Ry

!    total charge of GC-SCF    =       0.00297132 e
     smearing contrib. (-TS)   =      -0.00788750 Ry
     internal energy E=F+TS    =   -4845.09321427 Ry

     The total energy is F=E-TS. E is the sum of the following terms:
     one-electron contribution = -423902.33441001 Ry
     hartree contribution      =  211914.70218136 Ry
     xc contribution           =    -465.29382323 Ry
     ewald contribution        =  207607.83393610 Ry
     pot.stat. contrib. (-muN) =      -0.00109849 Ry

     convergence has been achieved in  10 iterations

     negative rho (up, down):  1.540E-03 0.000E+00

     Forces acting on atoms (cartesian axes, Ry/au):

     atom    1 type  1   force =     0.00025016    0.00014457    0.00908259
     atom    2 type  1   force =    -0.00006720   -0.00007230   -0.00132738
     atom    3 type  1   force =    -0.00017841   -0.00008358    0.00346478
     atom    4 type  1   force =     0.00024906    0.00014773    0.00908320
     atom    5 type  1   force =    -0.00005280   -0.00008867   -0.00130564
     atom    6 type  1   force =    -0.00021811   -0.00006679    0.00340942
     atom    7 type  1   force =     0.00025154    0.00014694    0.00908411
     atom    8 type  1   force =    -0.00010231   -0.00004924   -0.00128331
     atom    9 type  1   force =    -0.00012233   -0.00008211    0.00333897
     atom   10 type  1   force =     0.00025127    0.00014698    0.00908279
     atom   11 type  1   force =    -0.00010024   -0.00007362   -0.00126729
     atom   12 type  1   force =    -0.00016064   -0.00006991    0.00326328

     Total force =     0.006751     Total SCF correction =     0.018391
     SCF correction compared to forces is large: reduce conv_thr to get better values
     Energy error            =      2.8E-06 Ry
     Gradient error          =      3.5E-03 Ry/Bohr

     number of scf cycles    =   3
     number of bfgs steps    =   1

     energy             old  =   -4845.1011045799 Ry
     energy             new  =   -4845.1011017721 Ry

     CASE: energy            _new > energy            _old

     new trust radius        =       0.0002783496 bohr
     new conv_thr            =       0.0000010000 Ry


ATOMIC_POSITIONS (angstrom)
Cu               0.0000000000        0.0000000000       -2.0842344718    0   0   0
Cu               2.5769773314        1.4878185560        0.0198587084    0   0   0
Cu               1.2858130224        0.7416280334        2.0857199174
Cu               1.2884886657        2.2317278340       -2.0842344718    0   0   0
Cu               3.8654659971        3.7195463900        0.0198587084    0   0   0
Cu               2.5744991815        2.9733215395        2.0859932906
Cu               2.5769773314        0.0000000000       -2.0842344718    0   0   0
Cu               5.1539546628        1.4878185560        0.0198587084    0   0   0
Cu               3.8626179203        0.7415541415        2.0863076237
Cu               3.8654659971        2.2317278340       -2.0842344718    0   0   0
Cu               6.4424433285        3.7195463900        0.0198587084    0   0   0
Cu               5.1513095405        2.9732584119        2.0866975377



     Writing config-only to output data dir ./output/opt.save/ :
     XML data file
     NEW-OLD atomic charge density approx. for the potential

     negative rho (up, down):  1.541E-03 0.000E+00

     total cpu time spent up to now is      724.4 secs

     Self-consistent Calculation

     iteration #  1     ecut=    40.00 Ry     beta= 0.10
     Davidson diagonalization with overlap
     ethr =  1.00E-06,  avg # of iterations = 18.4

     Threshold (ethr) on eigenvalues was too large:
     Diagonalizing with lowered threshold

     Davidson diagonalization with overlap
     ethr =  4.34E-08,  avg # of iterations = 37.4

     negative rho (up, down):  1.540E-03 0.000E+00

     total cpu time spent up to now is      740.9 secs

     total energy              =   -4845.10090358 Ry
     estimated scf accuracy    <       0.00015519 Ry

     total charge of GC-SCF    =       0.00374825 e
     the Fermi energy          =      -4.96803065 eV
                        (error :       0.06196935 eV)

     iteration #  2     ecut=    40.00 Ry     beta= 0.10
     Davidson diagonalization with overlap
     ethr =  6.81E-08,  avg # of iterations = 33.9

     negative rho (up, down):  1.540E-03 0.000E+00

     total cpu time spent up to now is      750.3 secs

     total energy              =   -4845.10112725 Ry
     estimated scf accuracy    <       0.00001150 Ry

     total charge of GC-SCF    =       0.00361170 e
     the Fermi energy          =      -5.05570700 eV
                        (error :       0.02570700 eV)

     iteration #  3     ecut=    40.00 Ry     beta= 0.10
     Davidson diagonalization with overlap
     ethr =  5.04E-09,  avg # of iterations = 23.1

     negative rho (up, down):  1.540E-03 0.000E+00

     total cpu time spent up to now is      757.6 secs

     total energy              =   -4845.10111036 Ry
     estimated scf accuracy    <       0.00000487 Ry

     total charge of GC-SCF    =       0.00346803 e
     the Fermi energy          =      -5.04284747 eV
                        (error :       0.01284747 eV)

     iteration #  4     ecut=    40.00 Ry     beta= 0.10
     Davidson diagonalization with overlap
     ethr =  2.13E-09,  avg # of iterations = 27.0

     negative rho (up, down):  1.540E-03 0.000E+00

     total cpu time spent up to now is      765.8 secs

     total energy              =   -4845.10110966 Ry
     estimated scf accuracy    <       0.00000160 Ry

     total charge of GC-SCF    =       0.00349362 e
     the Fermi energy          =      -5.03126040 eV
                        (error :       0.00126040 eV)

     iteration #  5     ecut=    40.00 Ry     beta= 0.10
     Davidson diagonalization with overlap
     ethr =  7.04E-10,  avg # of iterations = 50.5

     negative rho (up, down):  1.540E-03 0.000E+00

     total cpu time spent up to now is      780.7 secs

     End of self-consistent calculation

          k = 0.1250 0.0722 0.0000 ( 19861 PWs)   bands (ev):

  -117.5236-117.5159-117.5156-117.5156-117.2569-117.2495-117.2490-117.2488
  -117.2322-117.2246-117.2243-117.2243 -74.9504 -74.9504 -74.9476 -74.9244
   -74.9142 -74.9138 -74.9138 -74.8957 -74.8957 -74.8949 -74.8773 -74.8772
   -74.7052 -74.7052 -74.6934 -74.6826 -74.6826 -74.6709 -74.6537 -74.6455
   -74.6455 -74.6363 -74.6310 -74.6254 -74.6227 -74.6227 -74.6156 -74.6135
   -74.6092 -74.6087 -74.6084 -74.6025 -74.5870 -74.5802 -74.5799 -74.5799
   -13.4615 -11.4878 -10.0047  -9.7794  -9.6371  -9.6370  -9.4507  -9.4084
    -9.4084  -9.0712  -9.0355  -9.0353  -8.9275  -8.9250  -8.9250  -8.3524
    -8.3522  -8.3419  -7.9925  -7.9692  -7.9656  -7.9653  -7.9278  -7.8762
    -7.8705  -7.7828  -7.7827  -7.7114  -7.6805  -7.6760  -7.5862  -7.5503
    -7.5246  -7.5176  -7.5172  -7.1303  -7.1302  -7.1027  -7.1015  -7.0942
    -7.0292  -7.0249  -7.0248  -6.9562  -6.7894  -6.7077  -6.6946  -6.6946
    -6.6674  -6.6329  -6.6203  -6.6203  -6.5931  -6.5930  -6.5751  -6.5641
    -6.4692  -6.4691  -6.3894  -6.3893  -6.3810  -6.3568  -6.2434  -5.7652
    -5.0251  -5.0246  -4.7675  -4.6895  -3.9874  -3.9869  -2.9954  -2.9943
    -2.7390  -0.7468  -0.4594  -0.4351  -0.4337  -0.3838  -0.3067   0.2645
     0.3814   0.3815   0.5200   0.5571   1.5243   1.7387   1.7395   1.7650
     1.7729

          k = 0.1250 0.3608 0.0000 ( 19876 PWs)   bands (ev):

  -117.5219-117.5173-117.5164-117.5151-117.2552-117.2508-117.2498-117.2485
  -117.2305-117.2260-117.2251-117.2238 -74.9437 -74.9378 -74.9352 -74.9220
   -74.9160 -74.9148 -74.9131 -74.9084 -74.8989 -74.8940 -74.8912 -74.8805
   -74.6982 -74.6910 -74.6845 -74.6756 -74.6685 -74.6619 -74.6584 -74.6570
   -74.6492 -74.6404 -74.6356 -74.6343 -74.6318 -74.6265 -74.6177 -74.6141
   -74.6102 -74.6093 -74.6090 -74.6081 -74.5855 -74.5814 -74.5806 -74.5794
   -12.7457 -10.8352 -10.4547  -9.9380  -9.5091  -9.4931  -9.3253  -9.2590
    -9.1353  -8.9657  -8.9100  -8.8528  -8.6753  -8.6420  -8.6339  -8.3496
    -8.3343  -8.3291  -8.2523  -8.1326  -8.0939  -8.0374  -7.9707  -7.9686
    -7.8396  -7.8098  -7.7568  -7.7333  -7.6882  -7.6799  -7.6516  -7.6377
    -7.6294  -7.5487  -7.4144  -7.3936  -7.3924  -7.3079  -7.3024  -7.2732
    -7.2569  -7.2347  -7.2191  -7.1483  -7.0957  -7.0810  -7.0504  -6.9606
    -6.9403  -6.9336  -6.8662  -6.7850  -6.7788  -6.7210  -6.7159  -6.6224
    -6.6189  -6.5840  -6.5825  -6.5679  -6.5141  -6.5087  -6.4434  -5.9590
    -5.8964  -5.5088  -5.0848  -3.8867  -3.5289  -3.4189  -2.7705  -2.6107
    -1.9795  -0.2440  -0.1024   0.0457   0.2535   0.3879   0.5816   0.8906
     0.9785   1.1874   1.2300   1.8540   2.2331   2.3708   2.4173   2.5705
     2.7567

          k = 0.1250-0.5052 0.0000 ( 19917 PWs)   bands (ev):

  -117.5204-117.5188-117.5166-117.5150-117.2538-117.2522-117.2500-117.2484
  -117.2290-117.2274-117.2252-117.2237 -74.9373 -74.9340 -74.9217 -74.9200
   -74.9179 -74.9162 -74.9149 -74.9128 -74.9080 -74.9013 -74.8879 -74.8833
   -74.6860 -74.6857 -74.6762 -74.6721 -74.6656 -74.6633 -74.6632 -74.6543
   -74.6536 -74.6494 -74.6429 -74.6389 -74.6319 -74.6316 -74.6162 -74.6128
   -74.6114 -74.6094 -74.6091 -74.6080 -74.5842 -74.5828 -74.5807 -74.5793
   -12.0707 -11.2595 -10.2789  -9.9617  -9.7656  -9.2337  -9.1460  -9.0832
    -8.9930  -8.9421  -8.7639  -8.7520  -8.5894  -8.5528  -8.5098  -8.3932
    -8.3690  -8.3594  -8.2712  -8.2700  -8.1602  -8.1595  -7.9711  -7.9672
[...]
Cu               1.2858142980        0.7416283499        2.0856358177
Cu               1.2884886657        2.2317278340       -2.0842344718    0   0   0
Cu               3.8654659971        3.7195463900        0.0198587084    0   0   0
Cu               2.5745013478        2.9733212353        2.0859098986
Cu               2.5769773314        0.0000000000       -2.0842344718    0   0   0
Cu               5.1539546628        1.4878185560        0.0198587084    0   0   0
Cu               3.8626181778        0.7415546812        2.0862258301
Cu               3.8654659971        2.2317278340       -2.0842344718    0   0   0
Cu               6.4424433285        3.7195463900        0.0198587084    0   0   0
Cu               5.1513107520        2.9732583849        2.0866172185



     Writing config-only to output data dir ./output/opt.save/ :
     XML data file
     NEW-OLD atomic charge density approx. for the potential

     negative rho (up, down):  1.541E-03 0.000E+00

     total cpu time spent up to now is     1758.4 secs

     Self-consistent Calculation

     iteration #  1     ecut=    40.00 Ry     beta= 0.10
     Davidson diagonalization with overlap
     ethr =  1.00E-06,  avg # of iterations = 24.4

     negative rho (up, down):  1.541E-03 0.000E+00

     total cpu time spent up to now is     1765.7 secs

     total energy              =   -4845.10130702 Ry
     estimated scf accuracy    <       0.00036028 Ry

     total charge of GC-SCF    =       0.00334417 e
     the Fermi energy          =      -5.17763557 eV
                        (error :       0.14763557 eV)

     iteration #  2     ecut=    40.00 Ry     beta= 0.10
     Davidson diagonalization with overlap
     ethr =  1.58E-07,  avg # of iterations = 29.8

     negative rho (up, down):  1.541E-03 0.000E+00

     total cpu time spent up to now is     1774.1 secs

     total energy              =   -4845.10111252 Ry
     estimated scf accuracy    <       0.00003440 Ry

     total charge of GC-SCF    =       0.00307568 e
     the Fermi energy          =      -5.06614235 eV
                        (error :       0.03614235 eV)

     iteration #  3     ecut=    40.00 Ry     beta= 0.10
     Davidson diagonalization with overlap
     ethr =  1.51E-08,  avg # of iterations = 49.0

     negative rho (up, down):  1.542E-03 0.000E+00

     total cpu time spent up to now is     1787.1 secs

     total energy              =   -4845.10110056 Ry
     estimated scf accuracy    <       0.00002002 Ry

     total charge of GC-SCF    =       0.00321595 e
     the Fermi energy          =      -5.02912802 eV
                        (error :       0.00087198 eV)

     iteration #  4     ecut=    40.00 Ry     beta= 0.10
     Davidson diagonalization with overlap
     ethr =  8.78E-09,  avg # of iterations = 36.4

     negative rho (up, down):  1.542E-03 0.000E+00

     total cpu time spent up to now is     1798.2 secs

     total energy              =   -4845.10111124 Ry
     estimated scf accuracy    <       0.00000272 Ry

     total charge of GC-SCF    =       0.00314603 e
     the Fermi energy          =      -5.03402526 eV
                        (error :       0.00402526 eV)

     iteration #  5     ecut=    40.00 Ry     beta= 0.10
     Davidson diagonalization with overlap
     ethr =  1.19E-09,  avg # of iterations = 46.0

     negative rho (up, down):  1.540E-03 0.000E+00

     total cpu time spent up to now is     1811.0 secs

     End of self-consistent calculation

          k = 0.1250 0.0722 0.0000 ( 19861 PWs)   bands (ev):

  -117.5089-117.5012-117.5009-117.5008-117.2437-117.2363-117.2359-117.2356
  -117.2170-117.2094-117.2091-117.2091 -74.9357 -74.9357 -74.9328 -74.9096
   -74.8995 -74.8991 -74.8991 -74.8809 -74.8809 -74.8802 -74.8626 -74.8625
   -74.6919 -74.6919 -74.6803 -74.6673 -74.6673 -74.6556 -74.6405 -74.6324
   -74.6323 -74.6230 -74.6156 -74.6122 -74.6074 -74.6074 -74.6024 -74.5981
   -74.5959 -74.5954 -74.5951 -74.5873 -74.5722 -74.5653 -74.5650 -74.5650
   -13.4469 -11.4737  -9.9903  -9.7648  -9.6225  -9.6224  -9.4362  -9.3940
    -9.3939  -9.0568  -9.0211  -9.0209  -8.9132  -8.9107  -8.9107  -8.3382
    -8.3380  -8.3277  -7.9780  -7.9547  -7.9511  -7.9508  -7.9133  -7.8618
    -7.8558  -7.7684  -7.7683  -7.6969  -7.6664  -7.6617  -7.5717  -7.5361
    -7.5101  -7.5034  -7.5030  -7.1161  -7.1159  -7.0884  -7.0871  -7.0797
    -7.0150  -7.0106  -7.0106  -6.9421  -6.7752  -6.6934  -6.6800  -6.6800
    -6.6528  -6.6187  -6.6060  -6.6060  -6.5788  -6.5786  -6.5605  -6.5497
    -6.4549  -6.4549  -6.3749  -6.3749  -6.3675  -6.3417  -6.2297  -5.7509
    -5.0107  -5.0102  -4.7540  -4.6754  -3.9732  -3.9727  -2.9810  -2.9799
    -2.7247  -0.7404  -0.4522  -0.4208  -0.4195  -0.3695  -0.3066   0.2697
     0.3951   0.3952   0.5234   0.5708   1.5287   1.7523   1.7530   1.7704
     1.7863

          k = 0.1250 0.3608 0.0000 ( 19876 PWs)   bands (ev):

  -117.5071-117.5026-117.5017-117.5004-117.2420-117.2376-117.2366-117.2353
  -117.2152-117.2108-117.2099-117.2086 -74.9289 -74.9231 -74.9204 -74.9073
   -74.9013 -74.9000 -74.8984 -74.8936 -74.8841 -74.8792 -74.8764 -74.8658
   -74.6849 -74.6778 -74.6713 -74.6602 -74.6531 -74.6466 -74.6452 -74.6438
   -74.6360 -74.6273 -74.6203 -74.6189 -74.6187 -74.6111 -74.6024 -74.6008
   -74.5969 -74.5960 -74.5949 -74.5937 -74.5707 -74.5666 -74.5658 -74.5646
   -12.7312 -10.8210 -10.4402  -9.9235  -9.4947  -9.4787  -9.3108  -9.2445
    -9.1208  -8.9512  -8.8954  -8.8384  -8.6610  -8.6277  -8.6195  -8.3353
    -8.3200  -8.3147  -8.2378  -8.1181  -8.0794  -8.0229  -7.9563  -7.9542
    -7.8253  -7.7953  -7.7424  -7.7190  -7.6738  -7.6657  -7.6373  -7.6234
    -7.6148  -7.5343  -7.4002  -7.3795  -7.3783  -7.2937  -7.2883  -7.2588
    -7.2427  -7.2204  -7.2049  -7.1341  -7.0815  -7.0667  -7.0361  -6.9461
    -6.9260  -6.9192  -6.8517  -6.7706  -6.7643  -6.7067  -6.7015  -6.6081
    -6.6047  -6.5696  -6.5681  -6.5536  -6.4995  -6.4942  -6.4290  -5.9448
    -5.8820  -5.4950  -5.0706  -3.8722  -3.5154  -3.4049  -2.7563  -2.5966
    -1.9651  -0.2306  -0.0947   0.0599   0.2590   0.3887   0.5953   0.9043
     0.9837   1.1907   1.2440   1.8676   2.2376   2.3846   2.4226   2.5813
     2.7701

          k = 0.1250-0.5052 0.0000 ( 19917 PWs)   bands (ev):

  -117.5057-117.5041-117.5018-117.5002-117.2406-117.2390-117.2368-117.2352
  -117.2138-117.2122-117.2100-117.2084 -74.9226 -74.9192 -74.9069 -74.9053
   -74.9032 -74.9015 -74.9002 -74.8980 -74.8933 -74.8866 -74.8732 -74.8686
   -74.6727 -74.6725 -74.6630 -74.6589 -74.6523 -74.6479 -74.6479 -74.6411
   -74.6382 -74.6341 -74.6275 -74.6257 -74.6187 -74.6163 -74.6009 -74.5995
   -74.5981 -74.5961 -74.5947 -74.5938 -74.5693 -74.5679 -74.5659 -74.5645
   -12.0562 -11.2450 -10.2646  -9.9472  -9.7513  -9.2192  -9.1316  -9.0688
    -8.9785  -8.9276  -8.7493  -8.7374  -8.5750  -8.5384  -8.4956  -8.3787
    -8.3544  -8.3448  -8.2567  -8.2556  -8.1458  -8.1452  -7.9568  -7.9529
    -7.8555  -7.8247  -7.7559  -7.7375  -7.7321  -7.7183  -7.7131  -7.6707
    -7.6524  -7.5858  -7.5667  -7.5288  -7.5226  -7.5041  -7.4630  -7.4409
    -7.3833  -7.2192  -7.2077  -7.1546  -7.1015  -7.0886  -7.0666  -7.0382
    -7.0060  -6.9678  -6.8819  -6.8439  -6.8420  -6.7736  -6.7631  -6.7174
    -6.6624  -6.6029  -6.5660  -6.5616  -6.5527  -6.5000  -6.4983  -6.4335
    -5.8361  -5.0564  -4.9518  -4.2642  -3.8618  -2.6346  -2.5619  -2.5105
    -1.4535  -0.7092   0.4613   0.5305   0.5479   0.9686   1.0880   1.3935
     1.4453   1.6960   1.7655   1.8633   1.9100   2.0222   2.4831   2.6379
     2.7577

          k = 0.1250-0.2165 0.0000 ( 19876 PWs)   bands (ev):

  -117.5082-117.5015-117.5015-117.5006-117.2431-117.2365-117.2365-117.2355
  -117.2164-117.2097-117.2097-117.2088 -74.9321 -74.9302 -74.9301 -74.9088
   -74.8999 -74.8999 -74.8986 -74.8879 -74.8795 -74.8795 -74.8702 -74.8619
   -74.6860 -74.6860 -74.6796 -74.6613 -74.6613 -74.6550 -74.6479 -74.6315
   -74.6315 -74.6305 -74.6231 -74.6116 -74.6066 -74.6066 -74.6057 -74.6017
   -74.5960 -74.5959 -74.5950 -74.5866 -74.5716 -74.5656 -74.5656 -74.5648
   -13.2045 -11.2478  -9.8658  -9.8657  -9.8128  -9.4432  -9.4031  -9.4031
    -9.2810  -9.0105  -9.0105  -8.9450  -8.8083  -8.8083  -8.7909  -8.3350
    -8.3239  -8.3237  -8.0877  -7.9436  -7.9243  -7.9238  -7.9234  -7.9170
    -7.9049  -7.7749  -7.7727  -7.7724  -7.6609  -7.6276  -7.5881  -7.5802
    -7.5798  -7.5454  -7.4260  -7.2401  -7.2049  -7.2048  -7.1837  -7.1052
    -7.0583  -7.0321  -7.0321  -7.0050  -6.9075  -6.8821  -6.8308  -6.8308
    -6.7375  -6.7374  -6.7146  -6.6997  -6.6420  -6.6420  -6.6173  -6.5801
    -6.5620  -6.5001  -6.5001  -6.4654  -6.4653  -6.4524  -5.9400  -5.9398
    -5.9307  -5.0222  -5.0219  -4.2792  -4.1604  -3.3344  -2.7947  -2.5845
    -2.5841  -0.5247  -0.4421  -0.2150  -0.0754   0.0283   0.0291   0.5078
     0.7451   0.8368   1.0005   1.0007   1.6335   1.7651   1.8462   1.8468
     1.9866

          k = 0.3750-0.0722 0.0000 ( 19876 PWs)   bands (ev):

  -117.5071-117.5026-117.5017-117.5004-117.2420-117.2376-117.2367-117.2353
  -117.2152-117.2108-117.2099-117.2086 -74.9289 -74.9231 -74.9204 -74.9073
   -74.9013 -74.9000 -74.8983 -74.8936 -74.8841 -74.8792 -74.8765 -74.8658
   -74.6849 -74.6778 -74.6713 -74.6602 -74.6531 -74.6466 -74.6452 -74.6437
   -74.6360 -74.6273 -74.6203 -74.6189 -74.6187 -74.6111 -74.6024 -74.6008
   -74.5968 -74.5961 -74.5948 -74.5938 -74.5707 -74.5666 -74.5658 -74.5646
   -12.7312 -10.8210 -10.4403  -9.9235  -9.4948  -9.4787  -9.3107  -9.2445
    -9.1208  -8.9514  -8.8955  -8.8384  -8.6610  -8.6277  -8.6195  -8.3352
    -8.3199  -8.3149  -8.2376  -8.1178  -8.0794  -8.0233  -7.9562  -7.9540
    -7.8255  -7.7947  -7.7419  -7.7190  -7.6737  -7.6658  -7.6373  -7.6237
    -7.6148  -7.5347  -7.4001  -7.3795  -7.3783  -7.2937  -7.2882  -7.2588
    -7.2427  -7.2204  -7.2047  -7.1342  -7.0815  -7.0666  -7.0363  -6.9462
    -6.9261  -6.9193  -6.8516  -6.7706  -6.7644  -6.7067  -6.7016  -6.6082
    -6.6045  -6.5694  -6.5681  -6.5536  -6.4998  -6.4943  -6.4290  -5.9446
    -5.8820  -5.4951  -5.0706  -3.8721  -3.5155  -3.4048  -2.7565  -2.5966
    -1.9660  -0.2310  -0.0947   0.0610   0.2590   0.3887   0.5953   0.9044
     0.9837   1.1907   1.2440   1.8677   2.2376   2.3852   2.4226   2.5809
     2.7701

          k = 0.3750 0.2165 0.0000 ( 19929 PWs)   bands (ev):

  -117.5066-117.5034-117.5009-117.5009-117.2415-117.2384-117.2359-117.2358
  -117.2147-117.2116-117.2091-117.2091 -74.9263 -74.9262 -74.9124 -74.9066
   -74.9023 -74.8990 -74.8990 -74.8905 -74.8904 -74.8832 -74.8750 -74.8677
   -74.6843 -74.6843 -74.6604 -74.6596 -74.6596 -74.6401 -74.6400 -74.6357
   -74.6354 -74.6322 -74.6282 -74.6152 -74.6152 -74.6105 -74.6074 -74.6033
   -74.6003 -74.5976 -74.5953 -74.5952 -74.5702 -74.5674 -74.5650 -74.5650
   -12.5021 -10.9032 -10.6263  -9.6340  -9.4413  -9.4413  -9.3672  -9.1463
    -9.1462  -8.9731  -8.8201  -8.8200  -8.6159  -8.5677  -8.5677  -8.3000
    -8.2968  -8.2966  -8.2959  -8.1633  -8.1632  -8.1583  -7.9452  -7.9235
    -7.7685  -7.7682  -7.7570  -7.6914  -7.6913  -7.6741  -7.6095  -7.6093
    -7.5905  -7.5008  -7.4756  -7.4684  -7.4684  -7.3898  -7.3897  -7.3852
    -7.3478  -7.2134  -7.2013  -7.1294  -7.1293  -7.1244  -7.0552  -6.9641
    -6.9506  -6.9504  -6.8375  -6.7966  -6.7941  -6.7940  -6.7929  -6.7364
    -6.7051  -6.5662  -6.5662  -6.5433  -6.5222  -6.4616  -6.4616  -6.3805
    -5.3116  -5.0303  -5.0303  -3.9485  -3.9067  -3.9066  -3.1821  -1.5777
    -1.5773  -0.9541   0.1194   0.4956   0.4962   0.4968   0.6214   1.2212
     1.4141   1.6990   1.6991   1.7732   2.3658   2.4508   2.4511   2.4733
     2.4813

          k = 0.3750-0.6495 0.0000 ( 19872 PWs)   bands (ev):

  -117.5044-117.5044-117.5031-117.4999-117.2394-117.2394-117.2380-117.2349
  -117.2126-117.2126-117.2112-117.2081 -74.9196 -74.9123 -74.9084 -74.9038
   -74.9038 -74.9019 -74.9010 -74.9010 -74.8976 -74.8793 -74.8750 -74.8750
   -74.6786 -74.6714 -74.6568 -74.6538 -74.6521 -74.6521 -74.6466 -74.6328
   -74.6328 -74.6320 -74.6285 -74.6273 -74.6273 -74.6079 -74.6079 -74.6037
   -74.5984 -74.5984 -74.5971 -74.5945 -74.5682 -74.5682 -74.5670 -74.5641
   -11.4252 -11.4251 -10.6766  -9.8155  -9.8155  -9.4252  -8.8595  -8.8527
    -8.8526  -8.8305  -8.6696  -8.6533  -8.6304  -8.6013  -8.4881  -8.4701
    -8.4700  -8.3120  -8.3120  -8.2215  -8.0533  -8.0478  -8.0227  -8.0226
    -8.0033  -7.9290  -7.9285  -7.9284  -7.8633  -7.8632  -7.7087  -7.6506
    -7.6479  -7.6226  -7.5563  -7.5459  -7.5455  -7.5351  -7.4559  -7.4557
    -7.2862  -7.2859  -7.1745  -7.1246  -7.0669  -7.0668  -7.0595  -7.0398
    -6.9717  -6.9717  -6.9005  -6.7640  -6.7640  -6.7011  -6.6977  -6.6977
    -6.6493  -6.6215  -6.6089  -6.6087  -6.5898  -6.5872  -6.4190  -6.4189
    -6.3506  -5.9084  -4.4042  -4.4041  -3.6366  -2.4035  -1.7090  -1.7089
    -1.0702  -0.6613  -0.5849  -0.5446   1.1670   1.1919   1.1919   1.3148
     1.6770   1.6770   1.7900   1.7900   2.0450   2.3128   2.4065   2.4065
     2.5407

          k = 0.3750-0.3608 0.0000 ( 19917 PWs)   bands (ev):

  -117.5057-117.5041-117.5018-117.5002-117.2406-117.2390-117.2368-117.2352
  -117.2138-117.2122-117.2100-117.2084 -74.9226 -74.9192 -74.9069 -74.9053
   -74.9032 -74.9015 -74.9002 -74.8980 -74.8933 -74.8866 -74.8732 -74.8686
   -74.6729 -74.6724 -74.6630 -74.6589 -74.6523 -74.6479 -74.6479 -74.6411
   -74.6382 -74.6341 -74.6275 -74.6258 -74.6188 -74.6163 -74.6009 -74.5995
   -74.5980 -74.5962 -74.5947 -74.5938 -74.5693 -74.5679 -74.5659 -74.5645
   -12.0562 -11.2450 -10.2647  -9.9472  -9.7513  -9.2192  -9.1317  -9.0689
    -8.9785  -8.9279  -8.7494  -8.7374  -8.5750  -8.5384  -8.4955  -8.3785
    -8.3544  -8.3447  -8.2567  -8.2555  -8.1459  -8.1452  -7.9565  -7.9528
    -7.8555  -7.8246  -7.7559  -7.7374  -7.7320  -7.7183  -7.7131  -7.6709
    -7.6526  -7.5858  -7.5667  -7.5287  -7.5226  -7.5041  -7.4630  -7.4410
    -7.3833  -7.2191  -7.2077  -7.1545  -7.1016  -7.0886  -7.0665  -7.0382
    -7.0061  -6.9678  -6.8821  -6.8439  -6.8420  -6.7736  -6.7631  -6.7174
    -6.6625  -6.6028  -6.5658  -6.5616  -6.5525  -6.5001  -6.4985  -6.4336
    -5.8361  -5.0565  -4.9519  -4.2643  -3.8619  -2.6346  -2.5621  -2.5106
    -1.4538  -0.7093   0.4612   0.5308   0.5479   0.9686   1.0880   1.3935
     1.4455   1.6960   1.7657   1.8633   1.9100   2.0222   2.4831   2.6379
     2.7577

     the Fermi energy is    -5.0248 ev

!    total energy              =   -4845.10107488 Ry
     estimated scf accuracy    <       0.00000090 Ry

!    total charge of GC-SCF    =       0.00629149 e
     smearing contrib. (-TS)   =      -0.00788962 Ry
     internal energy E=F+TS    =   -4845.09318525 Ry

     The total energy is F=E-TS. E is the sum of the following terms:
     one-electron contribution = -423901.53300542 Ry
     hartree contribution      =  211911.37096242 Ry
     xc contribution           =    -465.28845381 Ry
     ewald contribution        =  207610.35963750 Ry
     pot.stat. contrib. (-muN) =      -0.00232595 Ry

     convergence has been achieved in   5 iterations

     negative rho (up, down):  1.540E-03 0.000E+00

     Forces acting on atoms (cartesian axes, Ry/au):

     atom    1 type  1   force =     0.00025078    0.00014313    0.01066883
     atom    2 type  1   force =    -0.00007003   -0.00007461   -0.00374438
     atom    3 type  1   force =    -0.00017556   -0.00007460    0.00066684
     atom    4 type  1   force =     0.00025020    0.00013950    0.01066895
     atom    5 type  1   force =    -0.00005957   -0.00009029   -0.00372301
     atom    6 type  1   force =    -0.00021614   -0.00005748    0.00060543
     atom    7 type  1   force =     0.00024549    0.00014532    0.01067287
     atom    8 type  1   force =    -0.00010292   -0.00005809   -0.00370356
     atom    9 type  1   force =    -0.00011110   -0.00007935    0.00052914
     atom   10 type  1   force =     0.00024782    0.00014037    0.01067286
     atom   11 type  1   force =    -0.00009702   -0.00007511   -0.00369064
     atom   12 type  1   force =    -0.00016195   -0.00005880    0.00044137

     Total force =     0.001192     Total SCF correction =     0.001327
     SCF correction compared to forces is large: reduce conv_thr to get better values
     Energy error            =      3.0E-05 Ry
     Gradient error          =      6.7E-04 Ry/Bohr

     bfgs converged in  20 scf cycles and   1 bfgs steps
     (criteria: energy <  1.0E-04 Ry, force <  1.0E-03 Ry/Bohr)

     End of BFGS Geometry Optimization

     Final energy             =   -4845.1010748762 Ry

     File ./output/opt.bfgs deleted, as requested
Begin final coordinates

ATOMIC_POSITIONS (angstrom)
Cu               0.0000000000        0.0000000000       -2.0842344718    0   0   0
Cu               2.5769773314        1.4878185560        0.0198587084    0   0   0
Cu               1.2858142980        0.7416283499        2.0856358177
Cu               1.2884886657        2.2317278340       -2.0842344718    0   0   0
Cu               3.8654659971        3.7195463900        0.0198587084    0   0   0
Cu               2.5745013478        2.9733212353        2.0859098986
Cu               2.5769773314        0.0000000000       -2.0842344718    0   0   0
Cu               5.1539546628        1.4878185560        0.0198587084    0   0   0
Cu               3.8626181778        0.7415546812        2.0862258301
Cu               3.8654659971        2.2317278340       -2.0842344718    0   0   0
Cu               6.4424433285        3.7195463900        0.0198587084    0   0   0
Cu               5.1513107520        2.9732583849        2.0866172185
End final coordinates



     Writing all to output data dir ./output/opt.save/ :
     XML data file, charge density, pseudopotentials, collected wavefunctions
 
     init_run     :      0.87s CPU      1.00s WALL (       1 calls)
     electrons    :   1779.94s CPU   1798.59s WALL (      20 calls)
     update_pot   :      0.41s CPU      0.45s WALL (      19 calls)
     forces       :      7.96s CPU      8.51s WALL (      20 calls)

     Called by init_run:
     wfcinit      :      0.64s CPU      0.68s WALL (       1 calls)
     potinit      :      0.02s CPU      0.04s WALL (       1 calls)
     hinit0       :      0.10s CPU      0.12s WALL (       1 calls)

     Called by electrons:
     c_bands      :   1733.75s CPU   1743.12s WALL (     156 calls)
     sum_band     :     37.96s CPU     42.84s WALL (     156 calls)
     v_of_rho     :      2.80s CPU      3.19s WALL (     164 calls)
     newd         :      5.57s CPU      9.69s WALL (     164 calls)
     mix_rho      :      0.28s CPU      0.33s WALL (     156 calls)

     Called by c_bands:
     init_us_2    :      3.29s CPU      3.40s WALL (    2664 calls)
     cegterg      :   1722.18s CPU   1730.35s WALL (    3228 calls)

     Called by *egterg:
     cdiaghg      :    939.19s CPU    940.51s WALL (   50542 calls)
     h_psi        :    440.42s CPU    446.01s WALL (   51118 calls)
     s_psi        :     39.81s CPU     40.18s WALL (   51118 calls)
     g_psi        :      1.96s CPU      1.98s WALL (   47882 calls)

     Called by h_psi:
     h_psi:calbec :     61.08s CPU     61.68s WALL (   51118 calls)
     vloc_psi     :    330.56s CPU    335.25s WALL (   51118 calls)
     add_vuspsi   :     45.07s CPU     45.42s WALL (   51118 calls)

     General routines
     calbec       :     68.92s CPU     69.65s WALL (   53006 calls)
     fft          :      1.93s CPU      2.20s WALL (    2343 calls)
     ffts         :      0.07s CPU      0.08s WALL (     320 calls)
     fftw         :    288.05s CPU    292.09s WALL ( 2849394 calls)
     interpolate  :      0.19s CPU      0.21s WALL (     164 calls)
 
     Parallel routines
 
     PWSCF        :  29m51.77s CPU  30m12.23s WALL

 
   This run was terminated on:  10:15:33  10Jun2024            

=------------------------------------------------------------------------------=
   JOB DONE.
=------------------------------------------------------------------------------=
