
     Program PWSCF v.7.3.1 starts on 10Jun2024 at  9:42:10 

     This program is part of the open-source Quantum ESPRESSO suite
     for quantum simulation of materials; please cite
         "P. Giannozzi et al., J. Phys.:Condens. Matter 21 395502 (2009);
         "P. Giannozzi et al., J. Phys.:Condens. Matter 29 465901 (2017);
         "P. Giannozzi et al., J. Chem. Phys. 152 154105 (2020);
          URL http://www.quantum-espresso.org", 
     in publications or presentations arising from this work. More details at
     http://www.quantum-espresso.org/quote

     Parallel version (MPI), running on    32 processors

     MPI processes distributed on     1 nodes
     178355 MiB available memory on the printing compute node when the environment starts
 
     Reading input from scf.in
Warning: card &RISM ignored
Warning: card    NSOLV            = 3 ignored
Warning: card    CLOSURE          = 'KH' ignored
Warning: card    TEMPV            = 300.0 ignored
Warning: card    ECUTSOLV         = 160.0 ignored
Warning: card    SOLUTE_LJ(1)     = 'NONE' ignored
Warning: card    SOLUTE_EPSILON(1) = 0.005 ignored
Warning: card    SOLUTE_SIGMA(1)  = 3.11369102 ignored
Warning: card    STARTING1D       = 'ZERO' ignored
Warning: card    STARTING3D       = 'ZERO' ignored
Warning: card    RISM1D_MAXSTEP   = 15000 ignored
Warning: card    RISM3D_MAXSTEP   = 15000 ignored
Warning: card    RISM1D_CONV_THR  = 1E-08 ignored
Warning: card    RISM3D_CONV_THR  = 1E-06 ignored
Warning: card    MDIIS1D_SIZE     = 20 ignored
Warning: card    MDIIS3D_SIZE     = 20 ignored
Warning: card    MDIIS1D_STEP     = 0.2 ignored
Warning: card    MDIIS3D_STEP     = 0.1 ignored
Warning: card    RISM3D_CONV_LEVEL = 0.7 ignored
Warning: card    LAUE_EXPAND_RIGHT = 60 ignored
Warning: card    LAUE_BUFFER_RIGHT = 4.0 ignored
Warning: card / ignored
Warning: card SOLVENTS {MOL/L} ignored
Warning: card H2O -1.0 H2O.TIP5P.NISHIHARA.MOL ignored
Warning: card K+   1.0 K+.HAGIWARA.MOL ignored
Warning: card OH-  1.0 OH-.OPLSAA.MOL ignored

     Current dimensions of program PWSCF are:
     Max number of different atomic species (ntypx) = 10
     Max number of k-points (npk) =  40000
     Max angular momentum in pseudopotentials (lmaxx) =  4
 
     R & G space division:  proc/nbgrp/npool/nimage =      32
     Subspace diagonalization in iterative solution of the eigenvalue problem:
     a serial algorithm will be used

 
     Parallelization info
     --------------------
     sticks:   dense  smooth     PW     G-vecs:    dense   smooth      PW
     Min          65      32      9                14054     4956     765
     Max          66      33     10                14087     4993     792
     Sum        2083    1039    301               450233   159127   24819
 
     Using Slab Decomposition
 


     bravais-lattice index     =            0
     lattice parameter (alat)  =       9.7396  a.u.
     unit-cell volume          =    4657.2513 (a.u.)^3
     number of atoms/cell      =           12
     number of atomic types    =            1
     number of electrons       =       228.00
     number of Kohn-Sham states=          137
     kinetic-energy cutoff     =      40.0000  Ry
     charge density cutoff     =     320.0000  Ry
     scf convergence threshold =      1.0E-06
     mixing beta               =       0.1000
     number of iterations used =            8  plain     mixing
     energy convergence thresh.=      1.0E-04
     force convergence thresh. =      1.0E-03
     Exchange-correlation= SLA  PW   PBE  PBE
                           (   1   4   3   4   0   0   0)
     nstep                     =           50


     Effective Screening Medium Method
     =================================
     Boundary Conditions: Vacuum-Slab-Metal
     total charge in unit cell        =   0.0000
     grid points for fit at edges     =        4 
 

     >>>> FCP Relaxation is activated <<<<<
     Initial Total Charge =     0.000000 e
     Target Fermi Energy  =    -0.369698 Ry
                          =    -5.030000 eV

     celldm(1)=   9.739563  celldm(2)=   0.000000  celldm(3)=   0.000000
     celldm(4)=   0.000000  celldm(5)=   0.000000  celldm(6)=   0.000000

     crystal axes: (cart. coord. in units of alat)
               a(1) = (   1.000000   0.000000   0.000000 )  
               a(2) = (   0.500000   0.866025   0.000000 )  
               a(3) = (   0.000000   0.000000   5.820773 )  

     reciprocal axes: (cart. coord. in units 2 pi/alat)
               b(1) = (  1.000000 -0.577350  0.000000 )  
               b(2) = (  0.000000  1.154701  0.000000 )  
               b(3) = (  0.000000  0.000000  0.171798 )  


     PseudoPot. # 1 for Cu read from file:
     ../../../pseudo/cu_pbe_v1.2.uspp.F.UPF
     MD5 check sum: 6e991ff952a84172a2a52a1c1e996048
     Pseudo is Ultrasoft + core correction, Zval = 19.0
     Generated by new atomic code, or converted to UPF format
     Using radial grid of  867 points,  6 beta functions with: 
                l(1) =   0
                l(2) =   0
                l(3) =   1
                l(4) =   1
                l(5) =   2
                l(6) =   2
     Q(r) pseudized with  8 coefficients,  rinner =    1.150   1.150   1.150
                                                       1.150   1.150

     atomic species   valence    mass     pseudopotential
     Cu               19.00    63.54600     Cu( 1.00)

     No symmetry found



   Cartesian axes

     site n.     atom                  positions (alat units)
         1        Cu     tau(   1) = (   0.0000000   0.0000000  -0.4043952  )
         2        Cu     tau(   2) = (   0.5000000   0.2886751   0.0038531  )
         3        Cu     tau(   3) = (   0.2494813   0.1438951   0.4046548  )
         4        Cu     tau(   4) = (   0.2500000   0.4330127  -0.4043952  )
         5        Cu     tau(   5) = (   0.7500000   0.7216878   0.0038531  )
         6        Cu     tau(   6) = (   0.4995199   0.5769009   0.4047081  )
         7        Cu     tau(   7) = (   0.5000000   0.0000000  -0.4043952  )
         8        Cu     tau(   8) = (   1.0000000   0.2886751   0.0038531  )
         9        Cu     tau(   9) = (   0.7494475   0.1438808   0.4047696  )
        10        Cu     tau(  10) = (   0.7500000   0.4330127  -0.4043952  )
        11        Cu     tau(  11) = (   1.2500000   0.7216878   0.0038531  )
        12        Cu     tau(  12) = (   0.9994872   0.5768887   0.4048458  )

     number of k points=     8  Gaussian smearing, width (Ry)=  0.0100
                       cart. coord. in units 2pi/alat
        k(    1) = (   0.1250000   0.0721688   0.0000000), wk =   0.2500000
        k(    2) = (   0.1250000   0.3608439   0.0000000), wk =   0.2500000
        k(    3) = (   0.1250000  -0.5051815   0.0000000), wk =   0.2500000
        k(    4) = (   0.1250000  -0.2165064   0.0000000), wk =   0.2500000
        k(    5) = (   0.3750000  -0.0721688   0.0000000), wk =   0.2500000
        k(    6) = (   0.3750000   0.2165064   0.0000000), wk =   0.2500000
        k(    7) = (   0.3750000  -0.6495191   0.0000000), wk =   0.2500000
        k(    8) = (   0.3750000  -0.3608439   0.0000000), wk =   0.2500000

     Dense  grid:   450233 G-vectors     FFT dimensions: (  60,  60, 324)

     Smooth grid:   159127 G-vectors     FFT dimensions: (  40,  40, 240)

     Estimated max dynamical RAM per process >      71.06 MB

     Estimated total dynamical RAM >       2.22 GB

     Initial potential from superposition of free atoms

     starting charge     216.0000, renormalised to     228.0000

     negative rho (up, down):  4.189E-03 0.000E+00
     Starting wfcs are  156 randomized atomic wfcs

     total cpu time spent up to now is        1.1 secs

     Self-consistent Calculation

     iteration #  1     ecut=    40.00 Ry     beta= 0.10
     Davidson diagonalization with overlap
     ethr =  1.00E-02,  avg # of iterations =  6.5

     negative rho (up, down):  2.096E-03 0.000E+00

     total cpu time spent up to now is        5.0 secs

     total energy              =   -4843.91466072 Ry
     estimated scf accuracy    <      69.28537048 Ry

     iteration #  2     ecut=    40.00 Ry     beta= 0.10
     Davidson diagonalization with overlap
     ethr =  1.00E-02,  avg # of iterations =  2.0

     negative rho (up, down):  1.018E-03 0.000E+00

     total cpu time spent up to now is        7.0 secs

     total energy              =   -4841.55330717 Ry
     estimated scf accuracy    <      22.46806594 Ry

     iteration #  3     ecut=    40.00 Ry     beta= 0.10
     Davidson diagonalization with overlap
     ethr =  9.85E-03,  avg # of iterations =  2.0

     negative rho (up, down):  5.135E-04 0.000E+00

     total cpu time spent up to now is        8.9 secs

     total energy              =   -4842.99394399 Ry
     estimated scf accuracy    <       6.98876705 Ry

     iteration #  4     ecut=    40.00 Ry     beta= 0.10
     Davidson diagonalization with overlap
     ethr =  3.07E-03,  avg # of iterations =  4.9

     negative rho (up, down):  2.577E-04 0.000E+00

     total cpu time spent up to now is       11.6 secs

     total energy              =   -4844.54710912 Ry
     estimated scf accuracy    <       2.36354966 Ry

     iteration #  5     ecut=    40.00 Ry     beta= 0.10
     Davidson diagonalization with overlap
     ethr =  1.04E-03,  avg # of iterations =  6.1

     negative rho (up, down):  1.729E-04 0.000E+00

     total cpu time spent up to now is       14.5 secs

     total energy              =   -4844.81276672 Ry
     estimated scf accuracy    <       0.49906514 Ry

     iteration #  6     ecut=    40.00 Ry     beta= 0.10
     Davidson diagonalization with overlap
     c_bands:  3 eigenvalues not converged
     c_bands:  4 eigenvalues not converged
     c_bands:  5 eigenvalues not converged
     c_bands:  4 eigenvalues not converged
     c_bands:  4 eigenvalues not converged
     c_bands:  4 eigenvalues not converged
     c_bands:  4 eigenvalues not converged
     c_bands:  3 eigenvalues not converged
     ethr =  2.19E-04,  avg # of iterations = 20.0

     negative rho (up, down):  1.995E-04 0.000E+00

     total cpu time spent up to now is       21.4 secs

     total energy              =   -4845.05537783 Ry
     estimated scf accuracy    <       0.16872661 Ry

     iteration #  7     ecut=    40.00 Ry     beta= 0.10
     Davidson diagonalization with overlap
     c_bands:  5 eigenvalues not converged
     c_bands:  2 eigenvalues not converged
     c_bands:  5 eigenvalues not converged
     c_bands:  5 eigenvalues not converged
     c_bands:  2 eigenvalues not converged
     c_bands:  3 eigenvalues not converged
     c_bands:  4 eigenvalues not converged
     c_bands:  1 eigenvalues not converged
     ethr =  7.40E-05,  avg # of iterations = 55.0

     negative rho (up, down):  3.671E-04 0.000E+00

     total cpu time spent up to now is       37.4 secs

     total energy              =   -4845.08718277 Ry
     estimated scf accuracy    <       0.07034000 Ry

     iteration #  8     ecut=    40.00 Ry     beta= 0.10
     Davidson diagonalization with overlap
     c_bands:  1 eigenvalues not converged
     c_bands:  3 eigenvalues not converged
     c_bands:  3 eigenvalues not converged
     c_bands:  1 eigenvalues not converged
     c_bands:  1 eigenvalues not converged
     c_bands:  1 eigenvalues not converged
     ethr =  3.09E-05,  avg # of iterations = 23.6

     negative rho (up, down):  1.801E-03 0.000E+00

     total cpu time spent up to now is       44.7 secs

     total energy              =   -4845.10665569 Ry
     estimated scf accuracy    <       0.12344293 Ry

     iteration #  9     ecut=    40.00 Ry     beta= 0.10
     Davidson diagonalization with overlap
     c_bands:  2 eigenvalues not converged
     ethr =  3.09E-05,  avg # of iterations =  6.9

     negative rho (up, down):  3.186E-03 0.000E+00

     total cpu time spent up to now is       47.4 secs

     total energy              =   -4845.07530226 Ry
     estimated scf accuracy    <       0.08460209 Ry

     iteration # 10     ecut=    40.00 Ry     beta= 0.10
     Davidson diagonalization with overlap
     c_bands:  1 eigenvalues not converged
     ethr =  3.09E-05,  avg # of iterations =  7.0

     negative rho (up, down):  2.062E-03 0.000E+00

     total cpu time spent up to now is       50.5 secs

     total energy              =   -4845.09563538 Ry
     estimated scf accuracy    <       0.01568562 Ry

     iteration # 11     ecut=    40.00 Ry     beta= 0.10
     Davidson diagonalization with overlap
     c_bands:  2 eigenvalues not converged
     c_bands:  4 eigenvalues not converged
     c_bands:  3 eigenvalues not converged
     c_bands:  1 eigenvalues not converged
     c_bands:  5 eigenvalues not converged
     c_bands:  4 eigenvalues not converged
     ethr =  6.88E-06,  avg # of iterations = 19.1

     negative rho (up, down):  2.379E-03 0.000E+00

     total cpu time spent up to now is       56.7 secs

     total energy              =   -4845.09728051 Ry
     estimated scf accuracy    <       0.00437948 Ry

     iteration # 12     ecut=    40.00 Ry     beta= 0.10
     Davidson diagonalization with overlap
     c_bands:  3 eigenvalues not converged
     c_bands:  3 eigenvalues not converged
     c_bands:  1 eigenvalues not converged
     c_bands:  2 eigenvalues not converged
     c_bands:  2 eigenvalues not converged
     ethr =  1.92E-06,  avg # of iterations = 19.1

     negative rho (up, down):  2.536E-03 0.000E+00

     total cpu time spent up to now is       63.4 secs

     total energy              =   -4845.09937729 Ry
     estimated scf accuracy    <       0.00235225 Ry

     iteration # 13     ecut=    40.00 Ry     beta= 0.10
     Davidson diagonalization with overlap
     c_bands:  1 eigenvalues not converged
     c_bands:  2 eigenvalues not converged
     c_bands:  2 eigenvalues not converged
     ethr =  1.03E-06,  avg # of iterations = 10.6

     negative rho (up, down):  2.189E-03 0.000E+00

     total cpu time spent up to now is       67.7 secs

     total energy              =   -4845.10008055 Ry
     estimated scf accuracy    <       0.00028699 Ry

     iteration # 14     ecut=    40.00 Ry     beta= 0.10
     Davidson diagonalization with overlap
     c_bands:  2 eigenvalues not converged
     ethr =  1.26E-07,  avg # of iterations = 10.8

     negative rho (up, down):  2.012E-03 0.000E+00

     total cpu time spent up to now is       72.7 secs

     total energy              =   -4845.10045683 Ry
     estimated scf accuracy    <       0.00005442 Ry

     iteration # 15     ecut=    40.00 Ry     beta= 0.10
     Davidson diagonalization with overlap
     c_bands:  2 eigenvalues not converged
     ethr =  2.39E-08,  avg # of iterations = 10.4

     negative rho (up, down):  2.048E-03 0.000E+00

     total cpu time spent up to now is       77.4 secs

     total energy              =   -4845.10053125 Ry
     estimated scf accuracy    <       0.00003966 Ry

     iteration # 16     ecut=    40.00 Ry     beta= 0.10
     Davidson diagonalization with overlap
     c_bands:  2 eigenvalues not converged
     ethr =  1.74E-08,  avg # of iterations =  8.8

     negative rho (up, down):  1.917E-03 0.000E+00

     total cpu time spent up to now is       81.8 secs

     total energy              =   -4845.10058309 Ry
     estimated scf accuracy    <       0.00012962 Ry

     iteration # 17     ecut=    40.00 Ry     beta= 0.10
     Davidson diagonalization with overlap
     c_bands:  2 eigenvalues not converged
     ethr =  1.74E-08,  avg # of iterations =  7.0

     negative rho (up, down):  1.835E-03 0.000E+00

     total cpu time spent up to now is       85.3 secs

     total energy              =   -4845.10064128 Ry
     estimated scf accuracy    <       0.00000831 Ry

     iteration # 18     ecut=    40.00 Ry     beta= 0.10
     Davidson diagonalization with overlap
     ethr =  3.65E-09,  avg # of iterations =  6.9

     negative rho (up, down):  1.537E-03 0.000E+00

     total cpu time spent up to now is       89.2 secs

     End of self-consistent calculation

          k = 0.1250 0.0722 0.0000 ( 19861 PWs)   bands (ev):

  -117.2168-117.2091-117.2088-117.2088-116.9516-116.9442-116.9437-116.9435
  -116.9261-116.9185-116.9182-116.9182 -74.6438 -74.6438 -74.6408 -74.6176
   -74.6074 -74.6070 -74.6070 -74.5889 -74.5889 -74.5884 -74.5706 -74.5705
   -74.3998 -74.3997 -74.3880 -74.3764 -74.3763 -74.3646 -74.3483 -74.3401
   -74.3401 -74.3309 -74.3247 -74.3200 -74.3165 -74.3165 -74.3106 -74.3073
   -74.3041 -74.3037 -74.3034 -74.2963 -74.2813 -74.2745 -74.2742 -74.2742
   -13.1561 -11.1830  -9.6992  -9.4736  -9.3312  -9.3311  -9.1448  -9.1026
    -9.1026  -8.7654  -8.7296  -8.7295  -8.6219  -8.6194  -8.6194  -8.0470
    -8.0468  -8.0365  -7.6864  -7.6632  -7.6596  -7.6592  -7.6216  -7.5703
    -7.5641  -7.4768  -7.4767  -7.4054  -7.3749  -7.3702  -7.2803  -7.2448
    -7.2187  -7.2120  -7.2117  -6.8247  -6.8245  -6.7969  -6.7956  -6.7881
    -6.7238  -6.7193  -6.7193  -6.6512  -6.4839  -6.4022  -6.3884  -6.3884
    -6.3612  -6.3272  -6.3145  -6.3145  -6.2872  -6.2871  -6.2689  -6.2582
    -6.1633  -6.1633  -6.0834  -6.0834  -6.0755  -6.0506  -5.9398  -5.4597
    -4.7196  -4.7191  -4.4654  -4.3844  -3.6823  -3.6817  -2.6899  -2.6888
    -2.4339  -0.4958  -0.2372  -0.1447  -0.1299  -0.1286  -0.0789   0.4524
     0.6846   0.6848   0.7141   0.8607   1.7148   1.9760   2.0418   2.0425
     2.0750

          k = 0.1250 0.3608 0.0000 ( 19876 PWs)   bands (ev):

  -117.2151-117.2105-117.2096-117.2083-116.9499-116.9455-116.9445-116.9432
  -116.9244-116.9199-116.9190-116.9177 -74.6370 -74.6311 -74.6285 -74.6152
   -74.6092 -74.6079 -74.6063 -74.6017 -74.5923 -74.5873 -74.5844 -74.5738
   -74.3927 -74.3856 -74.3791 -74.3693 -74.3622 -74.3556 -74.3529 -74.3516
   -74.3438 -74.3350 -74.3294 -74.3280 -74.3264 -74.3202 -74.3114 -74.3090
   -74.3052 -74.3042 -74.3031 -74.3028 -74.2798 -74.2758 -74.2750 -74.2737
   -12.4403 -10.5302 -10.1492  -9.6324  -9.2035  -9.1874  -9.0194  -8.9532
    -8.8294  -8.6597  -8.6040  -8.5469  -8.3697  -8.3364  -8.3282  -8.0440
    -8.0287  -8.0234  -7.9462  -7.8266  -7.7879  -7.7315  -7.6648  -7.6627
    -7.5338  -7.5038  -7.4509  -7.4275  -7.3823  -7.3744  -7.3459  -7.3321
    -7.3231  -7.2428  -7.1090  -7.0883  -7.0871  -7.0024  -6.9972  -6.9674
    -6.9514  -6.9291  -6.9136  -6.8427  -6.7902  -6.7753  -6.7447  -6.6545
    -6.6348  -6.6277  -6.5601  -6.4790  -6.4728  -6.4154  -6.4100  -6.3166
    -6.3132  -6.2782  -6.2765  -6.2622  -6.2079  -6.2026  -6.1376  -5.6537
    -5.5906  -5.2050  -4.7796  -3.5809  -3.2268  -3.1147  -2.4653  -2.3064
    -1.6740   0.0574   0.1562   0.3507   0.4788   0.5428   0.8842   1.1675
     1.1939   1.3805   1.5336   2.1548   2.4248   2.6282   2.6744   2.8514
     3.0576

          k = 0.1250-0.5052 0.0000 ( 19917 PWs)   bands (ev):

  -117.2136-117.2120-117.2098-117.2082-116.9485-116.9469-116.9446-116.9431
  -116.9229-116.9214-116.9191-116.9176 -74.6306 -74.6273 -74.6150 -74.6132
   -74.6111 -74.6096 -74.6081 -74.6059 -74.6014 -74.5947 -74.5812 -74.5766
   -74.3805 -74.3803 -74.3708 -74.3667 -74.3601 -74.3570 -74.3569 -74.3489
   -74.3473 -74.3432 -74.3366 -74.3335 -74.3265 -74.3253 -74.3099 -74.3077
   -74.3063 -74.3044 -74.3030 -74.3028 -74.2785 -74.2771 -74.2751 -74.2736
   -11.7653 -10.9540  -9.9738  -9.6562  -9.4602  -8.9278  -8.8402  -8.7776
    -8.6870  -8.6362  -8.4579  -8.4459  -8.2836  -8.2470  -8.2042  -8.0872
    -8.0629  -8.0533  -7.9653  -7.9643  -7.8543  -7.8538  -7.6654  -7.6615
    -7.5643  -7.5332  -7.4647  -7.4462  -7.4407  -7.4269  -7.4218  -7.3795
    -7.3609  -7.2945  -7.2755  -7.2373  -7.2313  -7.2128  -7.1716  -7.1495
    -7.0918  -6.9276  -6.9164  -6.8632  -6.8101  -6.7971  -6.7752  -6.7467
    -6.7145  -6.6764  -6.5905  -6.5524  -6.5506  -6.4820  -6.4715  -6.4259
    -6.3711  -6.3114  -6.2745  -6.2701  -6.2612  -6.2083  -6.2066  -6.1423
    -5.5446  -4.7654  -4.6618  -3.9741  -3.5705  -2.3444  -2.2736  -2.2195
    -1.1655  -0.4183   0.7519   0.8040   0.8186   1.1931   1.2352   1.6555
     1.7363   1.8810   2.0525   2.0560   2.1402   2.1622   2.7723   2.8372
     2.9563

          k = 0.1250-0.2165 0.0000 ( 19876 PWs)   bands (ev):

  -117.2162-117.2094-117.2094-117.2085-116.9510-116.9444-116.9443-116.9433
  -116.9255-116.9188-116.9188-116.9179 -74.6401 -74.6383 -74.6382 -74.6167
   -74.6078 -74.6078 -74.6065 -74.5960 -74.5876 -74.5875 -74.5783 -74.5699
   -74.3939 -74.3938 -74.3874 -74.3704 -74.3704 -74.3640 -74.3557 -74.3393
   -74.3392 -74.3383 -74.3322 -74.3193 -74.3156 -74.3156 -74.3148 -74.3100
   -74.3043 -74.3042 -74.3033 -74.2956 -74.2808 -74.2748 -74.2747 -74.2739
   -12.9136 -10.9570  -9.5746  -9.5745  -9.5216  -9.1518  -9.1117  -9.1117
    -8.9896  -8.7190  -8.7190  -8.6535  -8.5170  -8.5170  -8.4996  -8.0438
    -8.0327  -8.0324  -7.7962  -7.6520  -7.6327  -7.6322  -7.6320  -7.6254
    -7.6134  -7.4833  -7.4812  -7.4809  -7.3694  -7.3361  -7.2966  -7.2888
    -7.2884  -7.2540  -7.1346  -6.9487  -6.9137  -6.9135  -6.8926  -6.8137
    -6.7670  -6.7408  -6.7408  -6.7136  -6.6164  -6.5906  -6.5394  -6.5394
    -6.4459  -6.4458  -6.4232  -6.4082  -6.3505  -6.3505  -6.3257  -6.2886
    -6.2705  -6.2085  -6.2085  -6.1738  -6.1737  -6.1607  -5.6486  -5.6485
    -5.6406  -4.7313  -4.7310  -3.9905  -3.8693  -3.0432  -2.5036  -2.2940
    -2.2936  -0.2778  -0.1511   0.0016   0.0838   0.3192   0.3199   0.6912
     0.9355   1.1262   1.2889   1.2892   1.9236   1.9520   2.1364   2.1365
     2.1918

          k = 0.3750-0.0722 0.0000 ( 19876 PWs)   bands (ev):

  -117.2151-117.2105-117.2096-117.2083-116.9499-116.9454-116.9446-116.9431
  -116.9244-116.9199-116.9190-116.9177 -74.6370 -74.6311 -74.6285 -74.6152
   -74.6092 -74.6079 -74.6063 -74.6017 -74.5923 -74.5873 -74.5845 -74.5738
   -74.3927 -74.3856 -74.3791 -74.3693 -74.3622 -74.3556 -74.3529 -74.3516
   -74.3438 -74.3350 -74.3293 -74.3280 -74.3264 -74.3202 -74.3114 -74.3091
   -74.3051 -74.3044 -74.3031 -74.3028 -74.2798 -74.2758 -74.2750 -74.2737
   -12.4403 -10.5302 -10.1492  -9.6324  -9.2035  -9.1874  -9.0194  -8.9532
    -8.8294  -8.6599  -8.6041  -8.5469  -8.3697  -8.3364  -8.3282  -8.0439
    -8.0286  -8.0236  -7.9461  -7.8263  -7.7878  -7.7318  -7.6647  -7.6625
    -7.5340  -7.5032  -7.4503  -7.4275  -7.3822  -7.3745  -7.3459  -7.3323
    -7.3231  -7.2431  -7.1089  -7.0884  -7.0871  -7.0024  -6.9970  -6.9674
    -6.9514  -6.9291  -6.9135  -6.8428  -6.7902  -6.7752  -6.7449  -6.6546
    -6.6349  -6.6278  -6.5600  -6.4791  -6.4729  -6.4154  -6.4101  -6.3167
    -6.3130  -6.2779  -6.2765  -6.2621  -6.2081  -6.2026  -6.1376  -5.6536
    -5.5905  -5.2051  -4.7796  -3.5808  -3.2269  -3.1147  -2.4655  -2.3063
    -1.6748   0.0570   0.1562   0.3518   0.4791   0.5431   0.8844   1.1677
     1.1941   1.3807   1.5337   2.1554   2.4246   2.6288   2.6755   2.8520
     3.0578

          k = 0.3750 0.2165 0.0000 ( 19929 PWs)   bands (ev):

  -117.2146-117.2114-117.2088-117.2088-116.9494-116.9463-116.9437-116.9436
  -116.9239-116.9207-116.9182-116.9182 -74.6344 -74.6344 -74.6204 -74.6145
   -74.6102 -74.6069 -74.6069 -74.5984 -74.5984 -74.5912 -74.5832 -74.5758
   -74.3922 -74.3921 -74.3687 -74.3687 -74.3682 -74.3478 -74.3478 -74.3447
   -74.3432 -74.3400 -74.3360 -74.3242 -74.3242 -74.3196 -74.3164 -74.3124
   -74.3086 -74.3059 -74.3036 -74.3035 -74.2794 -74.2765 -74.2742 -74.2742
   -12.2112 -10.6122 -10.3355  -9.3428  -9.1502  -9.1501  -9.0760  -8.8548
    -8.8548  -8.6817  -8.5286  -8.5285  -8.3246  -8.2763  -8.2763  -8.0086
    -8.0055  -8.0053  -8.0044  -7.8718  -7.8717  -7.8667  -7.6537  -7.6320
    -7.4770  -7.4767  -7.4656  -7.4001  -7.4000  -7.3827  -7.3179  -7.3179
    -7.2989  -7.2092  -7.1846  -7.1771  -7.1771  -7.0984  -7.0984  -7.0940
    -7.0565  -6.9221  -6.9099  -6.8381  -6.8380  -6.8329  -6.7637  -6.6725
    -6.6590  -6.6588  -6.5461  -6.5053  -6.5025  -6.5025  -6.5017  -6.4446
    -6.4138  -6.2747  -6.2747  -6.2518  -6.2306  -6.1700  -6.1699  -6.0894
    -5.0215  -4.7390  -4.7390  -3.6584  -3.6158  -3.6157  -2.8935  -1.2872
    -1.2869  -0.6660   0.3720   0.7171   0.7730   0.7871   0.7877   1.4062
     1.6039   1.9876   1.9877   2.0432   2.5996   2.6563   2.7407   2.7409
     2.8469

          k = 0.3750-0.6495 0.0000 ( 19872 PWs)   bands (ev):

  -117.2124-117.2123-117.2110-117.2078-116.9473-116.9472-116.9458-116.9427
  -116.9217-116.9217-116.9204-116.9172 -74.6278 -74.6205 -74.6164 -74.6117
   -74.6117 -74.6098 -74.6090 -74.6090 -74.6055 -74.5872 -74.5831 -74.5831
   -74.3864 -74.3792 -74.3646 -74.3628 -74.3599 -74.3599 -74.3558 -74.3410
   -74.3406 -74.3406 -74.3364 -74.3364 -74.3363 -74.3170 -74.3170 -74.3127
   -74.3067 -74.3067 -74.3053 -74.3027 -74.2774 -74.2774 -74.2762 -74.2733
   -11.1343 -11.1342 -10.3857  -9.5245  -9.5245  -9.1340  -8.5683  -8.5613
    -8.5613  -8.5391  -8.3781  -8.3618  -8.3388  -8.3098  -8.1965  -8.1785
    -8.1785  -8.0206  -8.0206  -7.9301  -7.7622  -7.7563  -7.7315  -7.7313
    -7.7120  -7.6377  -7.6371  -7.6370  -7.5720  -7.5719  -7.4173  -7.3593
    -7.3567  -7.3313  -7.2649  -7.2544  -7.2540  -7.2436  -7.1645  -7.1643
    -6.9947  -6.9944  -6.8830  -6.8331  -6.7755  -6.7754  -6.7679  -6.7486
    -6.6804  -6.6803  -6.6089  -6.4725  -6.4724  -6.4095  -6.4062  -6.4062
    -6.3578  -6.3300  -6.3174  -6.3172  -6.2982  -6.2955  -6.1278  -6.1277
    -6.0592  -5.6173  -4.1141  -4.1140  -3.3465  -2.1123  -1.4208  -1.4206
    -0.7792  -0.3734  -0.2938  -0.2533   1.4521   1.4522   1.4580   1.6057
     1.9059   1.9066   1.9325   1.9332   2.3122   2.6024   2.6279   2.7168
     2.7398

          k = 0.3750-0.3608 0.0000 ( 19917 PWs)   bands (ev):

  -117.2136-117.2120-117.2098-117.2082-116.9485-116.9468-116.9447-116.9430
  -116.9229-116.9214-116.9191-116.9176 -74.6306 -74.6273 -74.6150 -74.6132
   -74.6111 -74.6096 -74.6081 -74.6059 -74.6014 -74.5947 -74.5812 -74.5766
   -74.3807 -74.3802 -74.3708 -74.3667 -74.3601 -74.3570 -74.3569 -74.3489
   -74.3473 -74.3431 -74.3366 -74.3335 -74.3265 -74.3253 -74.3099 -74.3078
   -74.3063 -74.3045 -74.3030 -74.3028 -74.2785 -74.2771 -74.2751 -74.2736
   -11.7653 -10.9541  -9.9738  -9.6561  -9.4603  -8.9278  -8.8404  -8.7776
    -8.6869  -8.6364  -8.4580  -8.4458  -8.2835  -8.2469  -8.2042  -8.0870
    -8.0629  -8.0532  -7.9652  -7.9642  -7.8544  -7.8538  -7.6650  -7.6614
    -7.5643  -7.5332  -7.4647  -7.4460  -7.4407  -7.4270  -7.4218  -7.3796
    -7.3611  -7.2945  -7.2754  -7.2372  -7.2313  -7.2127  -7.1716  -7.1496
    -7.0918  -6.9275  -6.9164  -6.8631  -6.8102  -6.7972  -6.7751  -6.7468
    -6.7145  -6.6764  -6.5906  -6.5524  -6.5506  -6.4820  -6.4716  -6.4259
    -6.3713  -6.3113  -6.2743  -6.2701  -6.2610  -6.2084  -6.2068  -6.1423
    -5.5446  -4.7654  -4.6618  -3.9742  -3.5706  -2.3444  -2.2737  -2.2197
    -1.1657  -0.4183   0.7518   0.8039   0.8187   1.1929   1.2353   1.6554
     1.7365   1.8809   2.0527   2.0561   2.1402   2.1623   2.7724   2.8304
     2.9574

     the Fermi energy is    -4.7334 ev

!    total energy              =   -4845.10106943 Ry
     estimated scf accuracy    <       0.00000065 Ry
     smearing contrib. (-TS)   =      -0.00789808 Ry
     internal energy E=F+TS    =   -4845.09317135 Ry

     The total energy is F=E-TS. E is the sum of the following terms:
     one-electron contribution = -423912.13737850 Ry
     hartree contribution      =  211921.46044624 Ry
     xc contribution           =    -465.29175400 Ry
     ewald contribution        =  207610.87551490 Ry
     pot.stat. contrib. (-muN) =       0.00000000 Ry

     convergence has been achieved in  18 iterations

     negative rho (up, down):  1.537E-03 0.000E+00

     Forces acting on atoms (cartesian axes, Ry/au):

     atom    1 type  1   force =     0.00046764    0.00007790    0.00627501
     atom    2 type  1   force =    -0.00000149    0.00001002   -0.00682906
     atom    3 type  1   force =    -0.00025538   -0.00000113    0.00114989
     atom    4 type  1   force =     0.00018586    0.00006329    0.00616872
     atom    5 type  1   force =    -0.00007515   -0.00000304   -0.00683953
     atom    6 type  1   force =    -0.00024131   -0.00009066    0.00113172
     atom    7 type  1   force =    -0.00003986    0.00001064    0.00639644
     atom    8 type  1   force =    -0.00019188   -0.00027248   -0.00656267
     atom    9 type  1   force =    -0.00002482   -0.00013532    0.00104552
     atom   10 type  1   force =     0.00024170    0.00026343    0.00627479
     atom   11 type  1   force =     0.00000714    0.00009234   -0.00666521
     atom   12 type  1   force =    -0.00007245   -0.00001498    0.00110158

     Total force =     0.002251     Total SCF correction =     0.005237
     SCF correction compared to forces is large: reduce conv_thr to get better values

     BFGS Geometry Optimization
     Energy error            =      4.7E-06 Ry
     Gradient error          =      1.1E-03 Ry/Bohr
     FCP gradient error      =      2.2E-02


     number of scf cycles    =   1
     number of bfgs steps    =   0

     grand-energy       new  =   -4845.1010694335 Ry

     new trust radius        =       0.1090001847 bohr
     new conv_thr            =       0.0000010000 Ry


ATOMIC_POSITIONS (angstrom)
Cu               0.0000000000        0.0000000000       -2.0842344718    0   0   0
Cu               2.5769773314        1.4878185560        0.0198587084    0   0   0
Cu               1.2856801132        0.7416279918        2.0861811343
Cu               1.2884886657        2.2317278340       -2.0842344718    0   0   0
Cu               3.8654659971        3.7195463900        0.0198587084    0   0   0
Cu               2.5743752788        2.9732730301        2.0864461315
Cu               2.5769773314        0.0000000000       -2.0842344718    0   0   0
Cu               5.1539546628        1.4878185560        0.0198587084    0   0   0
Cu               3.8626052395        0.7414834787        2.0867176509
Cu               3.8654659971        2.2317278340       -2.0842344718    0   0   0
Cu               6.4424433285        3.7195463900        0.0198587084    0   0   0
Cu               5.1512733235        2.9732504357        2.0871398088


     FCP: Total Charge =     0.000000  ->     0.002514
     FCP: Fermi Energy =    -0.347898 Ry (   -4.733395 eV)
     FCP: Target Level =    -0.369698 Ry (   -5.030000 eV)
     FCP: Force on FCP =    -0.021800 Ry (   -0.296605 eV)
     FCP: Force Thr.   =     0.000735 Ry (    0.010000 eV)



     Writing config-only to output data dir ./output/opt.save/ :
     XML data file
     NEW-OLD atomic charge density approx. for the potential

     negative rho (up, down):  1.536E-03 0.000E+00
     extrapolated charge  228.00000, renormalised to  227.99749

     total cpu time spent up to now is       89.9 secs

     Self-consistent Calculation

     iteration #  1     ecut=    40.00 Ry     beta= 0.10
     Davidson diagonalization with overlap
     ethr =  1.00E-06,  avg # of iterations =  3.0

     Threshold (ethr) on eigenvalues was too large:
     Diagonalizing with lowered threshold

     Davidson diagonalization with overlap
     ethr =  3.58E-08,  avg # of iterations =  5.0

     negative rho (up, down):  1.536E-03 0.000E+00

     total cpu time spent up to now is       95.6 secs

     total energy              =   -4845.10103856 Ry
     estimated scf accuracy    <       0.00010237 Ry

     iteration #  2     ecut=    40.00 Ry     beta= 0.10
     Davidson diagonalization with overlap
     c_bands:  5 eigenvalues not converged
     c_bands:  3 eigenvalues not converged
     ethr =  4.49E-08,  avg # of iterations =  7.2

     negative rho (up, down):  1.536E-03 0.000E+00

     total cpu time spent up to now is       98.4 secs

     total energy              =   -4845.10113416 Ry
     estimated scf accuracy    <       0.00311776 Ry

     iteration #  3     ecut=    40.00 Ry     beta= 0.10
     Davidson diagonalization with overlap
     c_bands:  2 eigenvalues not converged
     ethr =  4.49E-08,  avg # of iterations =  3.5

     negative rho (up, down):  1.536E-03 0.000E+00

     total cpu time spent up to now is      100.5 secs

     total energy              =   -4845.10115673 Ry
     estimated scf accuracy    <       0.00110672 Ry

     iteration #  4     ecut=    40.00 Ry     beta= 0.10
     Davidson diagonalization with overlap
     c_bands:  1 eigenvalues not converged
     ethr =  4.49E-08,  avg # of iterations =  3.4

     negative rho (up, down):  1.536E-03 0.000E+00

     total cpu time spent up to now is      102.5 secs

     total energy              =   -4845.10116026 Ry
     estimated scf accuracy    <       0.00102174 Ry

     iteration #  5     ecut=    40.00 Ry     beta= 0.10
     Davidson diagonalization with overlap
     c_bands:  1 eigenvalues not converged
     ethr =  4.49E-08,  avg # of iterations =  3.4

     negative rho (up, down):  1.536E-03 0.000E+00

     total cpu time spent up to now is      104.5 secs

     total energy              =   -4845.10116321 Ry
     estimated scf accuracy    <       0.00100945 Ry

     iteration #  6     ecut=    40.00 Ry     beta= 0.10
     Davidson diagonalization with overlap
     c_bands:  1 eigenvalues not converged
     ethr =  4.49E-08,  avg # of iterations =  3.4

     negative rho (up, down):  1.537E-03 0.000E+00

     total cpu time spent up to now is      106.5 secs

     total energy              =   -4845.10111743 Ry
     estimated scf accuracy    <       0.00100529 Ry

     iteration #  7     ecut=    40.00 Ry     beta= 0.10
     Davidson diagonalization with overlap
     c_bands:  1 eigenvalues not converged
     ethr =  4.49E-08,  avg # of iterations =  3.4

     negative rho (up, down):  1.537E-03 0.000E+00

     total cpu time spent up to now is      108.5 secs

     total energy              =   -4845.10113117 Ry
     estimated scf accuracy    <       0.00028517 Ry

     iteration #  8     ecut=    40.00 Ry     beta= 0.10
     Davidson diagonalization with overlap
     c_bands:  1 eigenvalues not converged
     ethr =  4.49E-08,  avg # of iterations =  3.4

     negative rho (up, down):  1.537E-03 0.000E+00

     total cpu time spent up to now is      110.5 secs

     total energy              =   -4845.10111859 Ry
     estimated scf accuracy    <       0.00029101 Ry

     iteration #  9     ecut=    40.00 Ry     beta= 0.10
     Davidson diagonalization with overlap
     c_bands:  1 eigenvalues not converged
     ethr =  4.49E-08,  avg # of iterations =  3.4

     negative rho (up, down):  1.538E-03 0.000E+00

     total cpu time spent up to now is      112.5 secs

     total energy              =   -4845.10111673 Ry
     estimated scf accuracy    <       0.00010361 Ry

     iteration # 10     ecut=    40.00 Ry     beta= 0.10
     Davidson diagonalization with overlap
     c_bands:  1 eigenvalues not converged
     ethr =  4.49E-08,  avg # of iterations =  3.4

     negative rho (up, down):  1.538E-03 0.000E+00

     total cpu time spent up to now is      114.5 secs

     total energy              =   -4845.10110858 Ry
     estimated scf accuracy    <       0.00003877 Ry

     iteration # 11     ecut=    40.00 Ry     beta= 0.10
     Davidson diagonalization with overlap
     ethr =  1.70E-08,  avg # of iterations =  1.1

     negative rho (up, down):  1.538E-03 0.000E+00

     total cpu time spent up to now is      116.2 secs

     total energy              =   -4845.10110560 Ry
     estimated scf accuracy    <       0.00000223 Ry

     iteration # 12     ecut=    40.00 Ry     beta= 0.10
     Davidson diagonalization with overlap
     ethr =  9.79E-10,  avg # of iterations =  7.6

     negative rho (up, down):  1.538E-03 0.000E+00

     total cpu time spent up to now is      119.9 secs

     total energy              =   -4845.10110607 Ry
     estimated scf accuracy    <       0.00000141 Ry

     iteration # 13     ecut=    40.00 Ry     beta= 0.10
     Davidson diagonalization with overlap
     ethr =  6.18E-10,  avg # of iterations =  6.0

     negative rho (up, down):  1.540E-03 0.000E+00

     total cpu time spent up to now is      122.6 secs

     End of self-consistent calculation

          k = 0.1250 0.0722 0.0000 ( 19861 PWs)   bands (ev):

  -117.4433-117.4357-117.4353-117.4353-117.1782-117.1708-117.1704-117.1701
  -117.1517-117.1442-117.1439-117.1438 -74.8703 -74.8702 -74.8674 -74.8441
   -74.8339 -74.8336 -74.8335 -74.8155 -74.8155 -74.8148 -74.7971 -74.7971
   -74.6265 -74.6264 -74.6148 -74.6023 -74.6023 -74.5905 -74.5750 -74.5669
   -74.5668 -74.5576 -74.5506 -74.5467 -74.5424 -74.5424 -74.5369 -74.5332
   -74.5304 -74.5300 -74.5297 -74.5222 -74.5068 -74.4999 -74.4996 -74.4996
   -13.3816 -11.4089  -9.9254  -9.6994  -9.5570  -9.5569  -9.3708  -9.3285
    -9.3285  -8.9915  -8.9556  -8.9555  -8.8480  -8.8456  -8.8456  -8.2729
    -8.2727  -8.2624  -7.9126  -7.8897  -7.8862  -7.8859  -7.8482  -7.7967
    -7.7904  -7.7027  -7.7026  -7.6313  -7.6011  -7.5963  -7.5067  -7.4708
    -7.4451  -7.4380  -7.4377  -7.0509  -7.0508  -7.0233  -7.0218  -7.0146
    -6.9498  -6.9454  -6.9454  -6.8771  -6.7100  -6.6284  -6.6148  -6.6148
    -6.5876  -6.5535  -6.5409  -6.5409  -6.5137  -6.5135  -6.4954  -6.4846
    -6.3898  -6.3898  -6.3098  -6.3098  -6.3022  -6.2768  -6.1651  -5.6860
    -4.9457  -4.9453  -4.6899  -4.6107  -3.9085  -3.9080  -2.9163  -2.9152
    -2.6602  -0.6770  -0.3944  -0.3563  -0.3550  -0.3051  -0.2558   0.3186
     0.4593   0.4594   0.5787   0.6353   1.5815   1.8166   1.8173   1.8262
     1.8505

          k = 0.1250 0.3608 0.0000 ( 19876 PWs)   bands (ev):

  -117.4416-117.4371-117.4362-117.4348-117.1765-117.1721-117.1711-117.1698
  -117.1500-117.1456-117.1447-117.1433 -74.8635 -74.8576 -74.8550 -74.8417
   -74.8358 -74.8345 -74.8328 -74.8282 -74.8187 -74.8138 -74.8110 -74.8003
   -74.6194 -74.6123 -74.6058 -74.5953 -74.5881 -74.5816 -74.5797 -74.5783
   -74.5705 -74.5618 -74.5553 -74.5540 -74.5532 -74.5462 -74.5373 -74.5353
   -74.5315 -74.5305 -74.5294 -74.5287 -74.5053 -74.5012 -74.5004 -74.4992
   -12.6659 -10.7562 -10.3747  -9.8580  -9.4297  -9.4134  -9.2454  -9.1789
    -9.0553  -8.8858  -8.8300  -8.7729  -8.5958  -8.5625  -8.5543  -8.2700
    -8.2547  -8.2494  -8.1724  -8.0526  -8.0141  -7.9575  -7.8913  -7.8890
    -7.7603  -7.7302  -7.6771  -7.6539  -7.6086  -7.6004  -7.5719  -7.5582
    -7.5494  -7.4690  -7.3352  -7.3144  -7.3133  -7.2286  -7.2232  -7.1938
    -7.1776  -7.1554  -7.1398  -7.0689  -7.0163  -7.0014  -6.9710  -6.8810
    -6.8610  -6.8541  -6.7866  -6.7054  -6.6993  -6.6416  -6.6365  -6.5430
    -6.5396  -6.5046  -6.5030  -6.4886  -6.4344  -6.4291  -6.3640  -5.8800
    -5.8169  -5.4306  -5.0058  -3.8072  -3.4513  -3.3409  -2.6915  -2.5326
    -1.9003  -0.1666  -0.0318   0.1244   0.3196   0.4374   0.6595   0.9685
     1.0329   1.2460   1.3087   1.9322   2.2915   2.4489   2.4807   2.6480
     2.8345

          k = 0.1250-0.5052 0.0000 ( 19917 PWs)   bands (ev):

  -117.4402-117.4386-117.4363-117.4347-117.1751-117.1735-117.1713-117.1697
  -117.1486-117.1470-117.1448-117.1432 -74.8571 -74.8538 -74.8415 -74.8398
   -74.8377 -74.8361 -74.8347 -74.8325 -74.8279 -74.8212 -74.8077 -74.8031
   -74.6072 -74.6070 -74.5975 -74.5934 -74.5869 -74.5829 -74.5828 -74.5756
   -74.5732 -74.5691 -74.5625 -74.5602 -74.5532 -74.5513 -74.5358 -74.5340
   -74.5326 -74.5307 -74.5293 -74.5288 -74.5039 -74.5025 -74.5005 -74.4991
   -11.9909 -11.1796 -10.1998  -9.8817  -9.6862  -9.1538  -9.0664  -9.0031
    -8.9130  -8.8623  -8.6839  -8.6719  -8.5096  -8.4730  -8.4303  -8.3133
    -8.2890  -8.2793  -8.1914  -8.1906  -8.0803  -8.0801  -7.8918  -7.8879
    -7.7905  -7.7596  -7.6909  -7.6725  -7.6669  -7.6531  -7.6479  -7.6056
    -7.5873  -7.5207  -7.5017  -7.4635  -7.4575  -7.4390  -7.3976  -7.3757
    -7.3181  -7.1539  -7.1426  -7.0896  -7.0363  -7.0235  -7.0015  -6.9731
    -6.9410  -6.9027  -6.8167  -6.7788  -6.7769  -6.7085  -6.6980  -6.6523
    -6.5974  -6.5379  -6.5010  -6.4966  -6.4876  -6.4349  -6.4332  -6.3687
    -5.7710  -4.9917  -4.8876  -4.2002  -3.7968  -2.5706  -2.4979  -2.4458
    -1.3895  -0.6445   0.5257   0.5946   0.6107   1.0320   1.1348   1.4562
     1.5102   1.7473   1.8302   1.9204   1.9762   2.0671   2.5483   2.6999
     2.8238

          k = 0.1250-0.2165 0.0000 ( 19876 PWs)   bands (ev):

  -117.4427-117.4360-117.4360-117.4351-117.1776-117.1710-117.1709-117.1700
  -117.1511-117.1445-117.1444-117.1436 -74.8667 -74.8647 -74.8647 -74.8433
   -74.8343 -74.8343 -74.8331 -74.8225 -74.8141 -74.8141 -74.8048 -74.7964
   -74.6206 -74.6205 -74.6141 -74.5964 -74.5964 -74.5899 -74.5825 -74.5660
   -74.5660 -74.5650 -74.5581 -74.5461 -74.5416 -74.5416 -74.5407 -74.5363
   -74.5305 -74.5304 -74.5295 -74.5216 -74.5062 -74.5002 -74.5002 -74.4994
   -13.1392 -11.1830  -9.8003  -9.8002  -9.7479  -9.3777  -9.3377  -9.3377
    -9.2155  -8.9452  -8.9451  -8.8795  -8.7432  -8.7432  -8.7258  -8.2697
    -8.2586  -8.2584  -8.0223  -7.8782  -7.8592  -7.8587  -7.8579  -7.8521
    -7.8399  -7.7096  -7.7072  -7.7069  -7.5958  -7.5623  -7.5229  -7.5148
    -7.5145  -7.4801  -7.3610  -7.1750  -7.1399  -7.1398  -7.1186  -7.0400
    -6.9931  -6.9668  -6.9668  -6.9398  -6.8425  -6.8170  -6.7657  -6.7657
    -6.6723  -6.6723  -6.6494  -6.6346  -6.5770  -6.5769  -6.5522  -6.5150
    -6.4969  -6.4350  -6.4349  -6.4003  -6.4002  -6.3874  -5.8749  -5.8748
    -5.8661  -4.9575  -4.9572  -4.2151  -4.0955  -3.2694  -2.7299  -2.5204
    -2.5199  -0.4615  -0.3776  -0.1563  -0.0253   0.0932   0.0939   0.5569
     0.8004   0.9009   1.0648   1.0650   1.6977   1.8178   1.9110   1.9113
     2.0429

          k = 0.3750-0.0722 0.0000 ( 19876 PWs)   bands (ev):

  -117.4416-117.4371-117.4362-117.4348-117.1765-117.1721-117.1712-117.1698
  -117.1500-117.1456-117.1447-117.1433 -74.8635 -74.8576 -74.8550 -74.8417
   -74.8358 -74.8345 -74.8328 -74.8282 -74.8187 -74.8138 -74.8110 -74.8004
   -74.6195 -74.6123 -74.6058 -74.5953 -74.5881 -74.5816 -74.5797 -74.5783
   -74.5705 -74.5618 -74.5553 -74.5540 -74.5532 -74.5462 -74.5373 -74.5353
   -74.5314 -74.5307 -74.5294 -74.5287 -74.5053 -74.5012 -74.5004 -74.4992
   -12.6659 -10.7562 -10.3748  -9.8580  -9.4297  -9.4134  -9.2454  -9.1789
    -9.0553  -8.8860  -8.8302  -8.7729  -8.5958  -8.5625  -8.5543  -8.2699
    -8.2546  -8.2496  -8.1722  -8.0523  -8.0141  -7.9579  -7.8912  -7.8889
    -7.7605  -7.7296  -7.6766  -7.6539  -7.6085  -7.6006  -7.5719  -7.5584
    -7.5494  -7.4694  -7.3351  -7.3145  -7.3133  -7.2286  -7.2231  -7.1938
    -7.1776  -7.1554  -7.1396  -7.0690  -7.0163  -7.0013  -6.9712  -6.8811
    -6.8611  -6.8543  -6.7865  -6.7054  -6.6993  -6.6416  -6.6366  -6.5431
    -6.5395  -6.5043  -6.5030  -6.4885  -6.4347  -6.4292  -6.3640  -5.8798
    -5.8169  -5.4307  -5.0058  -3.8071  -3.4514  -3.3408  -2.6917  -2.5326
    -1.9012  -0.1669  -0.0318   0.1255   0.3197   0.4375   0.6596   0.9686
     1.0330   1.2461   1.3088   1.9326   2.2916   2.4498   2.4791   2.6467
     2.8347

          k = 0.3750 0.2165 0.0000 ( 19929 PWs)   bands (ev):

  -117.4411-117.4379-117.4354-117.4354-117.1760-117.1729-117.1704-117.1702
  -117.1495-117.1464-117.1439-117.1438 -74.8609 -74.8608 -74.8469 -74.8411
   -74.8367 -74.8335 -74.8335 -74.8250 -74.8250 -74.8178 -74.8096 -74.8023
   -74.6189 -74.6188 -74.5949 -74.5947 -74.5946 -74.5746 -74.5745 -74.5706
   -74.5699 -74.5667 -74.5627 -74.5502 -74.5501 -74.5455 -74.5424 -74.5383
   -74.5348 -74.5321 -74.5299 -74.5298 -74.5048 -74.5020 -74.4996 -74.4996
   -12.4368 -10.8378 -10.5615  -9.5688  -9.3757  -9.3757  -9.3022  -9.0808
    -9.0808  -8.9078  -8.7546  -8.7545  -8.5507  -8.5024  -8.5023  -8.2346
    -8.2316  -8.2315  -8.2305  -8.0978  -8.0977  -8.0930  -7.8801  -7.8584
    -7.7034  -7.7031  -7.6920  -7.6263  -7.6262  -7.6090  -7.5443  -7.5438
    -7.5250  -7.4354  -7.4106  -7.4034  -7.4033  -7.3247  -7.3246  -7.3201
    -7.2827  -7.1483  -7.1363  -7.0642  -7.0641  -7.0591  -6.9901  -6.8990
    -6.8855  -6.8853  -6.7723  -6.7315  -6.7290  -6.7290  -6.7280  -6.6712
    -6.6401  -6.5012  -6.5011  -6.4783  -6.4572  -6.3965  -6.3965  -6.3157
    -5.2472  -4.9653  -4.9652  -3.8845  -3.8420  -3.8419  -3.1180  -1.5135
    -1.5131  -0.8900   0.1821   0.5571   0.5611   0.5617   0.6697   1.2712
     1.4702   1.7633   1.7634   1.8384   2.4461   2.5155   2.5157   2.5307
     2.6988

          k = 0.3750-0.6495 0.0000 ( 19872 PWs)   bands (ev):

  -117.4389-117.4389-117.4375-117.4344-117.1739-117.1738-117.1725-117.1694
  -117.1474-117.1473-117.1460-117.1429 -74.8542 -74.8469 -74.8429 -74.8383
   -74.8382 -74.8363 -74.8355 -74.8355 -74.8321 -74.8138 -74.8096 -74.8096
   -74.6131 -74.6060 -74.5913 -74.5888 -74.5867 -74.5866 -74.5817 -74.5673
   -74.5673 -74.5669 -74.5630 -74.5623 -74.5623 -74.5429 -74.5429 -74.5386
   -74.5330 -74.5329 -74.5316 -74.5290 -74.5029 -74.5028 -74.5016 -74.4987
   -11.3598 -11.3598 -10.6112  -9.7505  -9.7504  -9.3600  -8.7937  -8.7874
    -8.7874  -8.7651  -8.6040  -8.5880  -8.5648  -8.5360  -8.4226  -8.4046
    -8.4046  -8.2468  -8.2467  -8.1563  -7.9883  -7.9825  -7.9577  -7.9575
    -7.9382  -7.8640  -7.8634  -7.8633  -7.7981  -7.7981  -7.6436  -7.5855
    -7.5830  -7.5574  -7.4913  -7.4808  -7.4804  -7.4699  -7.3907  -7.3905
    -7.2208  -7.2206  -7.1092  -7.0596  -7.0017  -7.0016  -6.9945  -6.9747
    -6.9066  -6.9065  -6.8353  -6.6989  -6.6988  -6.6360  -6.6326  -6.6326
    -6.5842  -6.5564  -6.5439  -6.5437  -6.5247  -6.5221  -6.3541  -6.3540
    -6.2856  -5.8436  -4.3401  -4.3400  -3.5726  -2.3384  -1.6450  -1.6448
    -1.0053  -0.5973  -0.5199  -0.4796   1.2317   1.2545   1.2546   1.3791
     1.7420   1.7423   1.8348   1.8349   2.1083   2.3771   2.4610   2.4815
     2.5972

          k = 0.3750-0.3608 0.0000 ( 19917 PWs)   bands (ev):

  -117.4402-117.4386-117.4363-117.4347-117.1751-117.1735-117.1713-117.1697
  -117.1486-117.1470-117.1448-117.1432 -74.8572 -74.8538 -74.8415 -74.8398
   -74.8377 -74.8360 -74.8347 -74.8325 -74.8279 -74.8211 -74.8077 -74.8031
   -74.6074 -74.6069 -74.5975 -74.5934 -74.5868 -74.5829 -74.5828 -74.5756
   -74.5732 -74.5691 -74.5625 -74.5603 -74.5532 -74.5513 -74.5358 -74.5341
   -74.5326 -74.5307 -74.5293 -74.5288 -74.5039 -74.5025 -74.5005 -74.4991
   -11.9909 -11.1796 -10.1998  -9.8817  -9.6862  -9.1538  -9.0666  -9.0031
    -8.9130  -8.8626  -8.6839  -8.6719  -8.5096  -8.4729  -8.4302  -8.3131
    -8.2890  -8.2792  -8.1914  -8.1905  -8.0804  -8.0801  -7.8914  -7.8878
    -7.7905  -7.7595  -7.6909  -7.6724  -7.6668  -7.6531  -7.6479  -7.6058
    -7.5875  -7.5208  -7.5017  -7.4633  -7.4575  -7.4390  -7.3977  -7.3758
    -7.3181  -7.1538  -7.1426  -7.0895  -7.0363  -7.0235  -7.0014  -6.9732
    -6.9410  -6.9027  -6.8168  -6.7788  -6.7769  -6.7085  -6.6981  -6.6523
    -6.5975  -6.5377  -6.5008  -6.4965  -6.4874  -6.4350  -6.4334  -6.3687
    -5.7710  -4.9917  -4.8876  -4.2002  -3.7968  -2.5706  -2.4980  -2.4459
    -1.3897  -0.6445   0.5256   0.5949   0.6106   1.0316   1.1347   1.4561
     1.5104   1.7461   1.8303   1.9188   1.9757   2.0668   2.5483   2.6911
     2.8193

     the Fermi energy is    -4.9598 ev

!    total energy              =   -4845.10110183 Ry
     estimated scf accuracy    <       0.00000080 Ry
     smearing contrib. (-TS)   =      -0.00789339 Ry
     internal energy E=F+TS    =   -4845.09320845 Ry

     The total energy is F=E-TS. E is the sum of the following terms:
     one-electron contribution = -423898.48956166 Ry
     hartree contribution      =  211912.69354285 Ry
     xc contribution           =    -465.28912497 Ry
     ewald contribution        =  207605.99286470 Ry
     pot.stat. contrib. (-muN) =      -0.00092936 Ry

     convergence has been achieved in  13 iterations

     negative rho (up, down):  1.540E-03 0.000E+00

     Forces acting on atoms (cartesian axes, Ry/au):

     atom    1 type  1   force =     0.00019452    0.00011732    0.00547799
     atom    2 type  1   force =    -0.00011046   -0.00009573   -0.00501258
     atom    3 type  1   force =     0.00007030   -0.00011702   -0.00303963
     atom    4 type  1   force =     0.00020263    0.00012176    0.00547806
     atom    5 type  1   force =    -0.00010637   -0.00011592   -0.00499333
     atom    6 type  1   force =     0.00005368   -0.00003301   -0.00309070
     atom    7 type  1   force =     0.00020646    0.00012099    0.00546947
     atom    8 type  1   force =    -0.00014006   -0.00004498   -0.00503042
     atom    9 type  1   force =    -0.00019516    0.00004973   -0.00305006
     atom   10 type  1   force =     0.00020693    0.00012627    0.00549137
     atom   11 type  1   force =    -0.00015008   -0.00010778   -0.00502216
     atom   12 type  1   force =    -0.00023239   -0.00002164   -0.00318102

     Total force =     0.006191     Total SCF correction =     0.007746
     SCF correction compared to forces is large: reduce conv_thr to get better values
     Energy error            =      3.2E-05 Ry
     Gradient error          =      3.2E-03 Ry/Bohr
     FCP gradient error      =      5.2E-03


     number of scf cycles    =   2
     number of bfgs steps    =   1

     grand-energy       old  =   -4845.1010694335 Ry
     grand-energy       new  =   -4845.1011018318 Ry

     new trust radius        =       0.0990798696 bohr
     new conv_thr            =       0.0000010000 Ry


ATOMIC_POSITIONS (angstrom)
Cu               0.0000000000        0.0000000000       -2.0842344718    0   0   0
Cu               2.5769773314        1.4878185560        0.0198587084    0   0   0
Cu               1.2856256425        0.7415664054        2.0850025793
Cu               1.2884886657        2.2317278340       -2.0842344718    0   0   0
Cu               3.8654659971        3.7195463900        0.0198587084    0   0   0
Cu               2.5743171455        2.9732233868        2.0852343843
Cu               2.5769773314        0.0000000000       -2.0842344718    0   0   0
Cu               5.1539546628        1.4878185560        0.0198587084    0   0   0
Cu               3.8624943353        0.7414611438        2.0854963645
Cu               3.8654659971        2.2317278340       -2.0842344718    0   0   0
Cu               6.4424433285        3.7195463900        0.0198587084    0   0   0
Cu               5.1511259379        2.9732337693        2.0858700720


     FCP: Total Charge =     0.002514  ->     0.004799
     FCP: Fermi Energy =    -0.364536 Ry (   -4.959772 eV)
     FCP: Target Level =    -0.369698 Ry (   -5.030000 eV)
     FCP: Force on FCP =    -0.005162 Ry (   -0.070228 eV)
     FCP: Force Thr.   =     0.000735 Ry (    0.010000 eV)



     Writing config-only to output data dir ./output/opt.save/ :
     XML data file
     NEW-OLD atomic charge density approx. for the potential

     negative rho (up, down):  1.545E-03 0.000E+00
     extrapolated charge  227.99749, renormalised to  227.99520

     total cpu time spent up to now is      123.3 secs

     Self-consistent Calculation

     iteration #  1     ecut=    40.00 Ry     beta= 0.10
     Davidson diagonalization with overlap
     ethr =  1.00E-06,  avg # of iterations =  5.0

     negative rho (up, down):  1.544E-03 0.000E+00

     total cpu time spent up to now is      126.5 secs

     total energy              =   -4845.10095672 Ry
     estimated scf accuracy    <       0.00081364 Ry

     iteration #  2     ecut=    40.00 Ry     beta= 0.10
     Davidson diagonalization with overlap
     c_bands:  2 eigenvalues not converged
     c_bands:  3 eigenvalues not converged
     ethr =  3.57E-07,  avg # of iterations =  8.9

     negative rho (up, down):  1.543E-03 0.000E+00

     total cpu time spent up to now is      129.7 secs

     total energy              =   -4845.10105230 Ry
     estimated scf accuracy    <       0.00024592 Ry

     iteration #  3     ecut=    40.00 Ry     beta= 0.10
     Davidson diagonalization with overlap
     c_bands:  1 eigenvalues not converged
     ethr =  1.08E-07,  avg # of iterations =  6.5

     negative rho (up, down):  1.543E-03 0.000E+00

     total cpu time spent up to now is      132.6 secs

     total energy              =   -4845.10108304 Ry
     estimated scf accuracy    <       0.00015163 Ry

     iteration #  4     ecut=    40.00 Ry     beta= 0.10
     Davidson diagonalization with overlap
     ethr =  6.65E-08,  avg # of iterations =  1.4

     negative rho (up, down):  1.543E-03 0.000E+00

     total cpu time spent up to now is      134.3 secs

     total energy              =   -4845.10108898 Ry
     estimated scf accuracy    <       0.00003500 Ry

     iteration #  5     ecut=    40.00 Ry     beta= 0.10
     Davidson diagonalization with overlap
     ethr =  1.54E-08,  avg # of iterations =  5.0

     negative rho (up, down):  1.542E-03 0.000E+00

     total cpu time spent up to now is      137.5 secs

     total energy              =   -4845.10111804 Ry
     estimated scf accuracy    <       0.00036460 Ry

     iteration #  6     ecut=    40.00 Ry     beta= 0.10
     Davidson diagonalization with overlap
     ethr =  1.54E-08,  avg # of iterations =  1.1

     negative rho (up, down):  1.542E-03 0.000E+00

     total cpu time spent up to now is      139.2 secs

     total energy              =   -4845.10109071 Ry
     estimated scf accuracy    <       0.00040027 Ry

     iteration #  7     ecut=    40.00 Ry     beta= 0.10
     Davidson diagonalization with overlap
     ethr =  1.54E-08,  avg # of iterations =  1.0

     negative rho (up, down):  1.542E-03 0.000E+00

     total cpu time spent up to now is      140.9 secs

     total energy              =   -4845.10111289 Ry
     estimated scf accuracy    <       0.00000853 Ry

     iteration #  8     ecut=    40.00 Ry     beta= 0.10
     Davidson diagonalization with overlap
     ethr =  3.74E-09,  avg # of iterations =  2.6

     negative rho (up, down):  1.542E-03 0.000E+00

     total cpu time spent up to now is      142.8 secs

     total energy              =   -4845.10111666 Ry
     estimated scf accuracy    <       0.00006417 Ry

     iteration #  9     ecut=    40.00 Ry     beta= 0.10
     Davidson diagonalization with overlap
     ethr =  3.74E-09,  avg # of iterations =  1.4

     negative rho (up, down):  1.542E-03 0.000E+00

     total cpu time spent up to now is      144.6 secs

     total energy              =   -4845.10112165 Ry
     estimated scf accuracy    <       0.00000823 Ry

     iteration # 10     ecut=    40.00 Ry     beta= 0.10
     Davidson diagonalization with overlap
     ethr =  3.61E-09,  avg # of iterations =  1.0

     negative rho (up, down):  1.543E-03 0.000E+00

     total cpu time spent up to now is      146.2 secs

     total energy              =   -4845.10112623 Ry
     estimated scf accuracy    <       0.00000817 Ry

     iteration # 11     ecut=    40.00 Ry     beta= 0.10
     Davidson diagonalization with overlap
     ethr =  3.59E-09,  avg # of iterations =  1.2

     negative rho (up, down):  1.541E-03 0.000E+00

     total cpu time spent up to now is      147.9 secs

     End of self-consistent calculation

          k = 0.1250 0.0722 0.0000 ( 19861 PWs)   bands (ev):

  -117.6461-117.6384-117.6381-117.6381-117.3803-117.3729-117.3725-117.3723
  -117.3544-117.3468-117.3465-117.3465 -75.0729 -75.0729 -75.0701 -75.0470
   -75.0368 -75.0364 -75.0364 -75.0182 -75.0182 -75.0174 -74.9998 -74.9996
   -74.8286 -74.8286 -74.8169 -74.8048 -74.8048 -74.7931 -74.7772 -74.7690
   -74.7689 -74.7597 -74.7532 -74.7489 -74.7449 -74.7449 -74.7390 -74.7357
   -74.7325 -74.7321 -74.7318 -74.7247 -74.7094 -74.7025 -74.7022 -74.7022
   -13.5854 -11.6112 -10.1278  -9.9030  -9.7605  -9.7605  -9.5741  -9.5319
    -9.5319  -9.1945  -9.1588  -9.1587  -9.0507  -9.0482  -9.0481  -8.4756
    -8.4754  -8.4652  -8.1154  -8.0917  -8.0882  -8.0879  -8.0503  -7.9989
    -7.9934  -7.9061  -7.9060  -7.8348  -7.8037  -7.7993  -7.7089  -7.6734
    -7.6474  -7.6408  -7.6404  -7.2532  -7.2530  -7.2255  -7.2243  -7.2170
    -7.1522  -7.1478  -7.1477  -7.0790  -6.9123  -6.8302  -6.8172  -6.8172
    -6.7900  -6.7556  -6.7430  -6.7430  -6.7157  -6.7155  -6.6976  -6.6865
    -6.5920  -6.5919  -6.5121  -6.5121  -6.5044  -6.4792  -6.3658  -5.8883
    -5.1482  -5.1477  -4.8891  -4.8124  -4.1105  -4.1100  -3.1184  -3.1173
    -2.8615  -0.8619  -0.5637  -0.5573  -0.5560  -0.5063  -0.3954   0.1802
     0.2591   0.2592   0.4235   0.4345   1.4343   1.6170   1.6177   1.6514
     1.6676

          k = 0.1250 0.3608 0.0000 ( 19876 PWs)   bands (ev):

  -117.6443-117.6398-117.6389-117.6376-117.3786-117.3742-117.3732-117.3719
  -117.3526-117.3482-117.3473-117.3460 -75.0661 -75.0603 -75.0576 -75.0446
   -75.0386 -75.0374 -75.0357 -75.0309 -75.0213 -75.0165 -75.0137 -75.0030
   -74.8216 -74.8144 -74.8079 -74.7978 -74.7906 -74.7841 -74.7818 -74.7804
   -74.7726 -74.7639 -74.7578 -74.7565 -74.7553 -74.7487 -74.7399 -74.7375
   -74.7336 -74.7327 -74.7316 -74.7312 -74.7078 -74.7038 -74.7030 -74.7017
   -12.8696 -10.9585 -10.5786 -10.0618  -9.6323  -9.6165  -9.4487  -9.3825
    -9.2588  -9.0889  -9.0332  -8.9762  -8.7985  -8.7653  -8.7572  -8.4729
    -8.4575  -8.4523  -8.3754  -8.2558  -8.2169  -8.1605  -8.0934  -8.0915
    -7.9624  -7.9325  -7.8796  -7.8562  -7.8112  -7.8030  -7.7748  -7.7607
    -7.7523  -7.6718  -7.5374  -7.5167  -7.5155  -7.4309  -7.4253  -7.3960
    -7.3799  -7.3576  -7.3419  -7.2711  -7.2186  -7.2040  -7.1732  -7.0831
    -7.0630  -7.0562  -6.9887  -6.9078  -6.9013  -6.8436  -6.8384  -6.7451
    -6.7415  -6.7065  -6.7051  -6.6906  -6.6366  -6.6312  -6.5662  -6.0816
    -6.0193  -5.6310  -5.2075  -4.0098  -3.6504  -3.5407  -2.8936  -2.7326
    -2.1026  -0.3652  -0.2172  -0.0767   0.1454   0.3022   0.4598   0.7683
     0.8936   1.0909   1.1075   1.7324   2.1442   2.2490   2.3188   2.4600
     2.6355

          k = 0.1250-0.5052 0.0000 ( 19917 PWs)   bands (ev):

  -117.6429-117.6413-117.6390-117.6374-117.3772-117.3756-117.3734-117.3718
  -117.3512-117.3496-117.3474-117.3458 -75.0599 -75.0565 -75.0441 -75.0427
   -75.0405 -75.0387 -75.0376 -75.0354 -75.0305 -75.0238 -75.0104 -75.0058
   -74.8094 -74.8092 -74.7997 -74.7955 -74.7890 -74.7854 -74.7854 -74.7778
   -74.7758 -74.7716 -74.7651 -74.7624 -74.7554 -74.7538 -74.7384 -74.7362
   -74.7348 -74.7328 -74.7314 -74.7313 -74.7065 -74.7051 -74.7031 -74.7016
   -12.1946 -11.3834 -10.4023 -10.0856  -9.8890  -9.3571  -9.2692  -9.2070
    -9.1164  -9.0653  -8.8872  -8.8752  -8.7128  -8.6762  -8.6331  -8.5163
    -8.4921  -8.4826  -8.3943  -8.3930  -8.2834  -8.2826  -8.0939  -8.0901
    -7.9929  -7.9619  -7.8931  -7.8747  -7.8695  -7.8556  -7.8504  -7.8078
    -7.7895  -7.7228  -7.7039  -7.6661  -7.6598  -7.6413  -7.6003  -7.5783
    -7.5206  -7.3564  -7.3446  -7.2916  -7.2386  -7.2256  -7.2036  -7.1754
    -7.1430  -7.1049  -7.0191  -6.9808  -6.9790  -6.9107  -6.9000  -6.8545
    -6.7992  -6.7398  -6.7029  -6.6985  -6.6895  -6.6370  -6.6354  -6.5703
    -5.9734  -5.1934  -5.0877  -4.4000  -3.9994  -2.7705  -2.6967  -2.6476
    -1.5882  -0.8464   0.3245   0.3960   0.4244   0.8535   1.0031   1.2686
     1.3079   1.6053   1.6288   1.7637   1.7937   1.9387   2.3473   2.5485
     2.6607

          k = 0.1250-0.2165 0.0000 ( 19876 PWs)   bands (ev):

  -117.6455-117.6387-117.6387-117.6378-117.3797-117.3731-117.3730-117.3721
  -117.3538-117.3471-117.3471-117.3462 -75.0694 -75.0674 -75.0673 -75.0461
   -75.0372 -75.0372 -75.0359 -75.0251 -75.0168 -75.0168 -75.0074 -74.9991
   -74.8227 -74.8227 -74.8163 -74.7989 -74.7989 -74.7924 -74.7846 -74.7682
   -74.7681 -74.7672 -74.7606 -74.7482 -74.7441 -74.7441 -74.7432 -74.7384
   -74.7327 -74.7326 -74.7317 -74.7241 -74.7088 -74.7028 -74.7028 -74.7020
   -13.3429 -11.3853 -10.0040 -10.0039  -9.9503  -9.5812  -9.5410  -9.5410
    -9.4190  -9.1483  -9.1482  -9.0828  -8.9459  -8.9458  -8.9284  -8.4725
    -8.4614  -8.4611  -8.2252  -8.0812  -8.0614  -8.0612  -8.0609  -8.0539
    -8.0418  -7.9125  -7.9104  -7.9101  -7.7981  -7.7651  -7.7254  -7.7176
    -7.7173  -7.6827  -7.5633  -7.3772  -7.3421  -7.3420  -7.3207  -7.2425
    -7.1955  -7.1693  -7.1693  -7.1420  -7.0443  -7.0193  -6.9680  -6.9680
    -6.8747  -6.8746  -6.8515  -6.8367  -6.7790  -6.7789  -6.7542  -6.7170
    -6.6989  -6.6370  -6.6370  -6.6025  -6.6024  -6.5895  -6.0773  -6.0771
    -6.0667  -5.1593  -5.1590  -4.4143  -4.2982  -3.4717  -2.9318  -2.7209
    -2.7204  -0.6465  -0.5789  -0.3273  -0.1633  -0.1086  -0.1079   0.4182
     0.6452   0.7009   0.8653   0.8655   1.4979   1.6703   1.7109   1.7113
     1.8848

          k = 0.3750-0.0722 0.0000 ( 19876 PWs)   bands (ev):

  -117.6443-117.6398-117.6389-117.6376-117.3786-117.3742-117.3733-117.3719
  -117.3526-117.3482-117.3473-117.3460 -75.0661 -75.0603 -75.0576 -75.0446
   -75.0386 -75.0374 -75.0357 -75.0309 -75.0213 -75.0164 -75.0137 -75.0030
   -74.8216 -74.8144 -74.8079 -74.7978 -74.7906 -74.7841 -74.7818 -74.7804
   -74.7726 -74.7639 -74.7578 -74.7565 -74.7553 -74.7487 -74.7399 -74.7375
   -74.7335 -74.7328 -74.7315 -74.7312 -74.7078 -74.7038 -74.7030 -74.7017
   -12.8696 -10.9585 -10.5786 -10.0618  -9.6323  -9.6165  -9.4486  -9.3825
    -9.2588  -9.0891  -9.0333  -8.9762  -8.7985  -8.7653  -8.7572  -8.4728
    -8.4574  -8.4525  -8.3752  -8.2556  -8.2169  -8.1608  -8.0933  -8.0914
    -7.9626  -7.9319  -7.8791  -7.8562  -7.8110  -7.8031  -7.7748  -7.7610
    -7.7523  -7.6721  -7.5373  -7.5167  -7.5155  -7.4309  -7.4252  -7.3960
    -7.3799  -7.3576  -7.3417  -7.2712  -7.2186  -7.2039  -7.1734  -7.0832
    -7.0631  -7.0563  -6.9886  -6.9078  -6.9013  -6.8436  -6.8385  -6.7452
    -6.7414  -6.7063  -6.7050  -6.6905  -6.6368  -6.6313  -6.5662  -6.0814
    -6.0193  -5.6311  -5.2075  -4.0097  -3.6505  -3.5406  -2.8938  -2.7325
    -2.1034  -0.3656  -0.2172  -0.0756   0.1455   0.3024   0.4599   0.7684
     0.8938   1.0912   1.1076   1.7326   2.1445   2.2497   2.3212   2.4578
     2.6356

          k = 0.3750 0.2165 0.0000 ( 19929 PWs)   bands (ev):

  -117.6438-117.6406-117.6381-117.6381-117.3781-117.3750-117.3725-117.3724
  -117.3521-117.3490-117.3465-117.3465 -75.0635 -75.0634 -75.0497 -75.0439
   -75.0396 -75.0364 -75.0363 -75.0277 -75.0277 -75.0205 -75.0122 -75.0049
   -74.8210 -74.8209 -74.7972 -74.7972 -74.7970 -74.7767 -74.7766 -74.7732
   -74.7721 -74.7688 -74.7648 -74.7527 -74.7527 -74.7481 -74.7449 -74.7408
   -74.7370 -74.7343 -74.7321 -74.7319 -74.7074 -74.7045 -74.7022 -74.7022
   -12.6405 -11.0416 -10.7639  -9.7718  -9.5795  -9.5795  -9.5048  -9.2842
    -9.2841  -9.1108  -8.9579  -8.9578  -8.7534  -8.7054  -8.7054  -8.4377
    -8.4342  -8.4341  -8.4334  -8.3010  -8.3009  -8.2958  -8.0823  -8.0605
    -7.9057  -7.9054  -7.8942  -7.8286  -7.8286  -7.8112  -7.7473  -7.7464
    -7.7283  -7.6384  -7.6127  -7.6056  -7.6055  -7.5270  -7.5269  -7.5221
    -7.4849  -7.3502  -7.3386  -7.2664  -7.2663  -7.2618  -7.1924  -7.1010
    -7.0876  -7.0874  -6.9747  -6.9337  -6.9310  -6.9309  -6.9297  -6.8734
    -6.8424  -6.7031  -6.7031  -6.6802  -6.6590  -6.5986  -6.5986  -6.5172
    -5.4475  -5.1678  -5.1677  -4.0843  -4.0438  -4.0436  -3.3170  -1.7139
    -1.7136  -1.0887  -0.0036   0.3591   0.3596   0.3814   0.5354   1.1311
     1.3142   1.5637   1.5637   1.6485   2.2592   2.3154   2.3156   2.3807
     2.5375

          k = 0.3750-0.6495 0.0000 ( 19872 PWs)   bands (ev):

  -117.6416-117.6416-117.6403-117.6371-117.3760-117.3760-117.3746-117.3715
  -117.3500-117.3500-117.3486-117.3455 -75.0568 -75.0495 -75.0457 -75.0411
   -75.0411 -75.0392 -75.0383 -75.0383 -75.0349 -75.0165 -75.0122 -75.0122
   -74.8153 -74.8081 -74.7935 -74.7913 -74.7888 -74.7887 -74.7842 -74.7695
   -74.7694 -74.7694 -74.7651 -74.7648 -74.7648 -74.7455 -74.7454 -74.7411
   -74.7351 -74.7351 -74.7338 -74.7311 -74.7054 -74.7054 -74.7042 -74.7013
   -11.5636 -11.5636 -10.8151  -9.9532  -9.9532  -9.5630  -8.9977  -8.9905
    -8.9904  -8.9684  -8.8076  -8.7911  -8.7683  -8.7390  -8.6258  -8.6078
    -8.6078  -8.4494  -8.4494  -8.3589  -8.1906  -8.1853  -8.1600  -8.1598
    -8.1407  -8.0661  -8.0658  -8.0657  -8.0005  -8.0005  -7.8458  -7.7878
    -7.7851  -7.7597  -7.6934  -7.6830  -7.6826  -7.6723  -7.5931  -7.5929
    -7.4234  -7.4232  -7.3117  -7.2616  -7.2040  -7.2040  -7.1964  -7.1768
    -7.1089  -7.1088  -7.0376  -6.9011  -6.9010  -6.8380  -6.8349  -6.8348
    -6.7861  -6.7585  -6.7458  -6.7456  -6.7267  -6.7242  -6.5558  -6.5557
    -6.4878  -6.0453  -4.5400  -4.5399  -3.7724  -2.5412  -1.8437  -1.8436
    -1.2075  -0.7959  -0.7226  -0.6822   1.0302   1.0676   1.0676   1.1781
     1.5613   1.5616   1.7064   1.7068   1.9198   2.1770   2.3195   2.3400
     2.4432

          k = 0.3750-0.3608 0.0000 ( 19917 PWs)   bands (ev):

  -117.6429-117.6413-117.6390-117.6374-117.3772-117.3756-117.3734-117.3718
  -117.3512-117.3496-117.3474-117.3458 -75.0599 -75.0565 -75.0441 -75.0427
   -75.0405 -75.0387 -75.0376 -75.0354 -75.0305 -75.0238 -75.0104 -75.0059
   -74.8095 -74.8091 -74.7996 -74.7955 -74.7890 -74.7855 -74.7854 -74.7777
   -74.7758 -74.7716 -74.7651 -74.7624 -74.7554 -74.7538 -74.7384 -74.7362
   -74.7347 -74.7329 -74.7314 -74.7313 -74.7065 -74.7051 -74.7031 -74.7016
   -12.1946 -11.3834 -10.4023 -10.0856  -9.8891  -9.3571  -9.2694  -9.2070
    -9.1164  -9.0656  -8.8873  -8.8752  -8.7128  -8.6762  -8.6330  -8.5162
    -8.4921  -8.4825  -8.3943  -8.3929  -8.2835  -8.2825  -8.0936  -8.0900
    -7.9928  -7.9618  -7.8931  -7.8746  -7.8695  -7.8557  -7.8504  -7.8080
    -7.7897  -7.7228  -7.7039  -7.6659  -7.6598  -7.6413  -7.6004  -7.5784
    -7.5206  -7.3563  -7.3446  -7.2915  -7.2387  -7.2257  -7.2035  -7.1754
    -7.1431  -7.1049  -7.0192  -6.9808  -6.9790  -6.9107  -6.9000  -6.8545
    -6.7994  -6.7397  -6.7027  -6.6985  -6.6893  -6.6371  -6.6356  -6.5703
    -5.9734  -5.1934  -5.0877  -4.4001  -3.9994  -2.7705  -2.6969  -2.6476
    -1.5884  -0.8464   0.3244   0.3962   0.4244   0.8536   1.0035   1.2686
     1.3081   1.6076   1.6289   1.7657   1.7937   1.9390   2.3473   2.5496
     2.6640

     the Fermi energy is    -5.1617 ev

!    total energy              =   -4845.10110363 Ry
     estimated scf accuracy    <       0.00000009 Ry
     smearing contrib. (-TS)   =      -0.00788031 Ry
     internal energy E=F+TS    =   -4845.09322332 Ry

     The total energy is F=E-TS. E is the sum of the following terms:
     one-electron contribution = -423915.59306039 Ry
     hartree contribution      =  211919.63008663 Ry
     xc contribution           =    -465.29123009 Ry
     ewald contribution        =  207616.16275467 Ry
     pot.stat. contrib. (-muN) =      -0.00177414 Ry

     convergence has been achieved in  11 iterations

     negative rho (up, down):  1.541E-03 0.000E+00

     Forces acting on atoms (cartesian axes, Ry/au):

     atom    1 type  1   force =     0.00017829    0.00012157    0.00541083
     atom    2 type  1   force =    -0.00013775   -0.00010725   -0.00439953
     atom    3 type  1   force =    -0.00001099   -0.00006454    0.00004069
     atom    4 type  1   force =     0.00017250    0.00012343    0.00540154
     atom    5 type  1   force =    -0.00011654   -0.00013072   -0.00436397
     atom    6 type  1   force =    -0.00008183    0.00002130    0.00005382
     atom    7 type  1   force =     0.00017852    0.00011833    0.00540002
     atom    8 type  1   force =    -0.00018448   -0.00007116   -0.00438917
     atom    9 type  1   force =     0.00001004    0.00000163    0.00003114
     atom   10 type  1   force =     0.00017784    0.00011564    0.00541386
     atom   11 type  1   force =    -0.00018347   -0.00010667   -0.00436464
     atom   12 type  1   force =    -0.00000212   -0.00002156   -0.00005143

     Total force =     0.000142     Total SCF correction =     0.006142
     SCF correction compared to forces is large: reduce conv_thr to get better values
     Energy error            =      1.8E-06 Ry
     Gradient error          =      8.2E-05 Ry/Bohr
     FCP gradient error      =      9.7E-03


     number of scf cycles    =   3
     number of bfgs steps    =   2

     grand-energy       old  =   -4845.1011018318 Ry
     grand-energy       new  =   -4845.1011036324 Ry

     new trust radius        =       0.0540751327 bohr
     new conv_thr            =       0.0000010000 Ry


ATOMIC_POSITIONS (angstrom)
Cu               0.0000000000        0.0000000000       -2.0842344718    0   0   0
Cu               2.5769773314        1.4878185560        0.0198587084    0   0   0
Cu               1.2856394855        0.7415541115        2.0851611958
Cu               1.2884886657        2.2317278340       -2.0842344718    0   0   0
Cu               3.8654659971        3.7195463900        0.0198587084    0   0   0
Cu               2.5743068960        2.9732416668        2.0854033411
Cu               2.5769773314        0.0000000000       -2.0842344718    0   0   0
Cu               5.1539546628        1.4878185560        0.0198587084    0   0   0
Cu               3.8625160798        0.7414699953        2.0856621308
Cu               3.8654659971        2.2317278340       -2.0842344718    0   0   0
Cu               6.4424433285        3.7195463900        0.0198587084    0   0   0
Cu               5.1511509578        2.9732295639        2.0860133046


     FCP: Total Charge =     0.004799  ->     0.003552
     FCP: Fermi Energy =    -0.379380 Ry (   -5.161726 eV)
     FCP: Target Level =    -0.369698 Ry (   -5.030000 eV)
     FCP: Force on FCP =     0.009682 Ry (    0.131726 eV)
     FCP: Force Thr.   =     0.000735 Ry (    0.010000 eV)



     Writing config-only to output data dir ./output/opt.save/ :
     XML data file
     NEW-OLD atomic charge density approx. for the potential

     negative rho (up, down):  1.540E-03 0.000E+00
     extrapolated charge  227.99520, renormalised to  227.99645

     total cpu time spent up to now is      148.6 secs

     Self-consistent Calculation

     iteration #  1     ecut=    40.00 Ry     beta= 0.10
     Davidson diagonalization with overlap
     ethr =  1.00E-06,  avg # of iterations =  2.0

     Threshold (ethr) on eigenvalues was too large:
     Diagonalizing with lowered threshold

     Davidson diagonalization with overlap
     ethr =  1.28E-08,  avg # of iterations =  3.1

     negative rho (up, down):  1.540E-03 0.000E+00

     total cpu time spent up to now is      152.7 secs

     total energy              =   -4845.10111183 Ry
     estimated scf accuracy    <       0.00003102 Ry

     iteration #  2     ecut=    40.00 Ry     beta= 0.10
     Davidson diagonalization with overlap
     ethr =  1.36E-08,  avg # of iterations =  2.0

     negative rho (up, down):  1.541E-03 0.000E+00

     total cpu time spent up to now is      154.7 secs

     total energy              =   -4845.10114669 Ry
     estimated scf accuracy    <       0.00011221 Ry

     iteration #  3     ecut=    40.00 Ry     beta= 0.10
     Davidson diagonalization with overlap
     ethr =  1.36E-08,  avg # of iterations =  2.2

     negative rho (up, down):  1.541E-03 0.000E+00

     total cpu time spent up to now is      156.7 secs

     total energy              =   -4845.10113707 Ry
     estimated scf accuracy    <       0.00136041 Ry

     iteration #  4     ecut=    40.00 Ry     beta= 0.10
     Davidson diagonalization with overlap
     ethr =  1.36E-08,  avg # of iterations =  1.0

     negative rho (up, down):  1.541E-03 0.000E+00

     total cpu time spent up to now is      158.3 secs

     total energy              =   -4845.10113538 Ry
     estimated scf accuracy    <       0.00063701 Ry

     iteration #  5     ecut=    40.00 Ry     beta= 0.10
     Davidson diagonalization with overlap
     ethr =  1.36E-08,  avg # of iterations =  1.0

     negative rho (up, down):  1.541E-03 0.000E+00

     total cpu time spent up to now is      160.0 secs

     total energy              =   -4845.10113390 Ry
     estimated scf accuracy    <       0.00047947 Ry

     iteration #  6     ecut=    40.00 Ry     beta= 0.10
     Davidson diagonalization with overlap
     ethr =  1.36E-08,  avg # of iterations =  1.0

     negative rho (up, down):  1.540E-03 0.000E+00

     total cpu time spent up to now is      161.7 secs

     total energy              =   -4845.10112662 Ry
     estimated scf accuracy    <       0.00042889 Ry

     iteration #  7     ecut=    40.00 Ry     beta= 0.10
     Davidson diagonalization with overlap
     ethr =  1.36E-08,  avg # of iterations =  1.0

     negative rho (up, down):  1.540E-03 0.000E+00

     total cpu time spent up to now is      163.3 secs

     total energy              =   -4845.10110718 Ry
     estimated scf accuracy    <       0.00030448 Ry

     iteration #  8     ecut=    40.00 Ry     beta= 0.10
     Davidson diagonalization with overlap
     ethr =  1.36E-08,  avg # of iterations =  1.0

     negative rho (up, down):  1.540E-03 0.000E+00

     total cpu time spent up to now is      165.0 secs

     total energy              =   -4845.10111227 Ry
     estimated scf accuracy    <       0.00004640 Ry

     iteration #  9     ecut=    40.00 Ry     beta= 0.10
     Davidson diagonalization with overlap
     ethr =  1.36E-08,  avg # of iterations =  1.0

     negative rho (up, down):  1.540E-03 0.000E+00

     total cpu time spent up to now is      166.6 secs

     total energy              =   -4845.10110977 Ry
     estimated scf accuracy    <       0.00005309 Ry

     iteration # 10     ecut=    40.00 Ry     beta= 0.10
     Davidson diagonalization with overlap
     ethr =  1.36E-08,  avg # of iterations =  1.0

     negative rho (up, down):  1.540E-03 0.000E+00

     total cpu time spent up to now is      168.3 secs

     total energy              =   -4845.10110584 Ry
     estimated scf accuracy    <       0.00002169 Ry

     iteration # 11     ecut=    40.00 Ry     beta= 0.10
     Davidson diagonalization with overlap
     ethr =  9.51E-09,  avg # of iterations =  1.0

     negative rho (up, down):  1.540E-03 0.000E+00

     total cpu time spent up to now is      170.0 secs

     End of self-consistent calculation

          k = 0.1250 0.0722 0.0000 ( 19861 PWs)   bands (ev):

  -117.5341-117.5265-117.5261-117.5261-117.2683-117.2609-117.2604-117.2602
  -117.2426-117.2350-117.2347-117.2347 -74.9609 -74.9609 -74.9581 -74.9350
   -74.9248 -74.9245 -74.9245 -74.9062 -74.9062 -74.9054 -74.8879 -74.8877
   -74.7166 -74.7165 -74.7049 -74.6930 -74.6930 -74.6813 -74.6651 -74.6569
   -74.6569 -74.6477 -74.6414 -74.6368 -74.6332 -74.6331 -74.6270 -74.6239
   -74.6205 -74.6201 -74.6199 -74.6130 -74.5976 -74.5907 -74.5904 -74.5904
   -13.4731 -11.4991 -10.0157  -9.7908  -9.6484  -9.6483  -9.4620  -9.4198
    -9.4197  -9.0824  -9.0467  -9.0466  -8.9386  -8.9361  -8.9361  -8.3636
    -8.3634  -8.3531  -8.0034  -7.9798  -7.9763  -7.9759  -7.9384  -7.8870
    -7.8813  -7.7940  -7.7939  -7.7227  -7.6917  -7.6872  -7.5970  -7.5614
    -7.5354  -7.5288  -7.5284  -7.1412  -7.1411  -7.1136  -7.1123  -7.1051
    -7.0402  -7.0358  -7.0358  -6.9672  -6.8004  -6.7184  -6.7053  -6.7053
    -6.6781  -6.6437  -6.6311  -6.6311  -6.6038  -6.6036  -6.5856  -6.5747
    -6.4801  -6.4800  -6.4001  -6.4001  -6.3923  -6.3673  -6.2543  -5.7763
    -5.0361  -5.0357  -4.7782  -4.7004  -3.9985  -3.9980  -3.0064  -3.0053
    -2.7496  -0.7588  -0.4700  -0.4456  -0.4442  -0.3946  -0.3175   0.2555
     0.3705   0.3706   0.5094   0.5461   1.5147   1.7281   1.7289   1.7551
     1.7622

          k = 0.1250 0.3608 0.0000 ( 19876 PWs)   bands (ev):

  -117.5324-117.5279-117.5270-117.5256-117.2666-117.2622-117.2612-117.2599
  -117.2409-117.2364-117.2355-117.2342 -74.9542 -74.9484 -74.9457 -74.9327
   -74.9267 -74.9254 -74.9237 -74.9189 -74.9094 -74.9045 -74.9017 -74.8910
   -74.7095 -74.7024 -74.6959 -74.6860 -74.6788 -74.6723 -74.6698 -74.6684
   -74.6606 -74.6519 -74.6460 -74.6447 -74.6432 -74.6369 -74.6281 -74.6255
   -74.6216 -74.6207 -74.6196 -74.6194 -74.5961 -74.5920 -74.5912 -74.5900
   -12.7574 -10.8464 -10.4664  -9.9496  -9.5202  -9.5044  -9.3365  -9.2704
    -9.1466  -8.9768  -8.9211  -8.8641  -8.6865  -8.6532  -8.6451  -8.3608
    -8.3455  -8.3403  -8.2633  -8.1437  -8.1049  -8.0485  -7.9815  -7.9795
    -7.8504  -7.8205  -7.7677  -7.7442  -7.6992  -7.6910  -7.6628  -7.6487
    -7.6402  -7.5598  -7.4254  -7.4047  -7.4035  -7.3189  -7.3134  -7.2841
    -7.2679  -7.2456  -7.2300  -7.1592  -7.1067  -7.0920  -7.0613  -6.9712
    -6.9511  -6.9443  -6.8768  -6.7958  -6.7894  -6.7317  -6.7265  -6.6332
    -6.6297  -6.5946  -6.5932  -6.5787  -6.5247  -6.5193  -6.4542  -5.9697
    -5.9073  -5.5195  -5.0956  -3.8977  -3.5395  -3.4292  -2.7816  -2.6211
    -1.9906  -0.2546  -0.1140   0.0351   0.2420   0.3778   0.5708   0.8797
     0.9694   1.1768   1.2190   1.8430   2.2244   2.3602   2.4073   2.5636
     2.7460

          k = 0.1250-0.5052 0.0000 ( 19917 PWs)   bands (ev):

  -117.5309-117.5293-117.5271-117.5255-117.2652-117.2636-117.2614-117.2598
  -117.2394-117.2379-117.2356-117.2341 -74.9479 -74.9445 -74.9322 -74.9307
   -74.9286 -74.9267 -74.9256 -74.9234 -74.9185 -74.9119 -74.8984 -74.8939
   -74.6973 -74.6971 -74.6876 -74.6835 -74.6769 -74.6737 -74.6736 -74.6657
   -74.6640 -74.6598 -74.6533 -74.6503 -74.6433 -74.6420 -74.6266 -74.6242
   -74.6228 -74.6208 -74.6195 -74.6194 -74.5947 -74.5933 -74.5913 -74.5899
   -12.0824 -11.2712 -10.2901  -9.9734  -9.7769  -9.2450  -9.1571  -9.0948
    -9.0043  -8.9533  -8.7751  -8.7631  -8.6007  -8.5641  -8.5210  -8.4043
    -8.3801  -8.3706  -8.2823  -8.2810  -8.1713  -8.1705  -7.9820  -7.9781
    -7.8808  -7.8499  -7.7811  -7.7627  -7.7575  -7.7436  -7.7384  -7.6959
    -7.6775  -7.6109  -7.5919  -7.5541  -7.5479  -7.5294  -7.4883  -7.4663
    -7.4086  -7.2445  -7.2328  -7.1797  -7.1267  -7.1137  -7.0917  -7.0634
    -7.0311  -6.9930  -6.9071  -6.8689  -6.8671  -6.7987  -6.7881  -6.7426
    -6.6874  -6.6279  -6.5910  -6.5866  -6.5776  -6.5251  -6.5235  -6.4585
    -5.8614  -5.0815  -4.9762  -4.2886  -3.8874  -2.6590  -2.5860  -2.5356
    -1.4775  -0.7344   0.4363   0.5066   0.5280   0.9523   1.0767   1.3729
     1.4199   1.6818   1.7405   1.8497   1.8946   2.0103   2.4584   2.6257
     2.7462

          k = 0.1250-0.2165 0.0000 ( 19876 PWs)   bands (ev):

  -117.5335-117.5268-117.5267-117.5258-117.2677-117.2611-117.2610-117.2601
  -117.2420-117.2353-117.2353-117.2344 -74.9574 -74.9554 -74.9554 -74.9342
   -74.9253 -74.9252 -74.9240 -74.9131 -74.9048 -74.9048 -74.8954 -74.8872
   -74.7107 -74.7106 -74.7042 -74.6871 -74.6871 -74.6807 -74.6725 -74.6561
   -74.6561 -74.6551 -74.6488 -74.6362 -74.6323 -74.6323 -74.6314 -74.6264
   -74.6207 -74.6206 -74.6197 -74.6123 -74.5970 -74.5910 -74.5910 -74.5902
   -13.2307 -11.2732  -9.8918  -9.8917  -9.8382  -9.4691  -9.4288  -9.4288
    -9.3068  -9.0362  -9.0361  -8.9707  -8.8338  -8.8338  -8.8163  -8.3605
    -8.3493  -8.3491  -8.1132  -7.9691  -7.9494  -7.9492  -7.9489  -7.9420
    -7.9299  -7.8005  -7.7983  -7.7981  -7.6861  -7.6531  -7.6134  -7.6056
    -7.6053  -7.5707  -7.4513  -7.2653  -7.2301  -7.2300  -7.2088  -7.1305
    -7.0835  -7.0573  -7.0573  -7.0301  -6.9325  -6.9073  -6.8560  -6.8560
    -6.7627  -6.7626  -6.7396  -6.7248  -6.6671  -6.6670  -6.6423  -6.6051
    -6.5871  -6.5251  -6.5251  -6.4906  -6.4905  -6.4776  -5.9653  -5.9651
    -5.9552  -5.0473  -5.0470  -4.3033  -4.1861  -3.3597  -2.8198  -2.6092
    -2.6088  -0.5434  -0.4671  -0.2325  -0.0862   0.0032   0.0039   0.4936
     0.7311   0.8123   0.9762   0.9764   1.6092   1.7510   1.8221   1.8225
     1.9718

          k = 0.3750-0.0722 0.0000 ( 19876 PWs)   bands (ev):

  -117.5324-117.5279-117.5270-117.5256-117.2666-117.2621-117.2613-117.2599
  -117.2409-117.2364-117.2355-117.2342 -74.9542 -74.9484 -74.9456 -74.9327
   -74.9267 -74.9254 -74.9237 -74.9189 -74.9094 -74.9045 -74.9018 -74.8911
   -74.7096 -74.7024 -74.6959 -74.6860 -74.6788 -74.6723 -74.6697 -74.6684
   -74.6606 -74.6519 -74.6460 -74.6447 -74.6433 -74.6369 -74.6281 -74.6255
   -74.6215 -74.6208 -74.6195 -74.6195 -74.5961 -74.5920 -74.5912 -74.5900
   -12.7574 -10.8464 -10.4664  -9.9496  -9.5203  -9.5044  -9.3365  -9.2704
    -9.1466  -8.9770  -8.9212  -8.8641  -8.6865  -8.6532  -8.6451  -8.3607
    -8.3454  -8.3405  -8.2632  -8.1435  -8.1049  -8.0488  -7.9814  -7.9794
    -7.8506  -7.8199  -7.7671  -7.7442  -7.6991  -7.6911  -7.6628  -7.6490
    -7.6402  -7.5601  -7.4253  -7.4048  -7.4035  -7.3189  -7.3133  -7.2840
[...]
     new conv_thr            =       0.0000010000 Ry


ATOMIC_POSITIONS (angstrom)
Cu               0.0000000000        0.0000000000       -2.0842344718    0   0   0
Cu               2.5769773314        1.4878185560        0.0198587084    0   0   0
Cu               1.2855425960        0.7415282406        2.0853549775
Cu               1.2884886657        2.2317278340       -2.0842344718    0   0   0
Cu               3.8654659971        3.7195463900        0.0198587084    0   0   0
Cu               2.5742281354        2.9731980421        2.0855595420
Cu               2.5769773314        0.0000000000       -2.0842344718    0   0   0
Cu               5.1539546628        1.4878185560        0.0198587084    0   0   0
Cu               3.8624190063        0.7414212833        2.0857975759
Cu               3.8654659971        2.2317278340       -2.0842344718    0   0   0
Cu               6.4424433285        3.7195463900        0.0198587084    0   0   0
Cu               5.1510426273        2.9731938177        2.0861148643


     FCP: Total Charge =     0.003330  ->     0.003323
     FCP: Fermi Energy =    -0.369475 Ry (   -5.026965 eV)
     FCP: Target Level =    -0.369698 Ry (   -5.030000 eV)
     FCP: Force on FCP =    -0.000223 Ry (   -0.003035 eV)
     FCP: Force Thr.   =     0.000735 Ry (    0.010000 eV)



     Writing config-only to output data dir ./output/opt.save/ :
     XML data file
     NEW-OLD atomic charge density approx. for the potential

     negative rho (up, down):  1.540E-03 0.000E+00

     total cpu time spent up to now is      206.8 secs

     Self-consistent Calculation

     iteration #  1     ecut=    40.00 Ry     beta= 0.10
     Davidson diagonalization with overlap
     ethr =  1.00E-06,  avg # of iterations =  2.0

     Threshold (ethr) on eigenvalues was too large:
     Diagonalizing with lowered threshold

     Davidson diagonalization with overlap
     ethr =  4.23E-09,  avg # of iterations =  2.0

     negative rho (up, down):  1.540E-03 0.000E+00

     total cpu time spent up to now is      210.5 secs

     total energy              =   -4845.10110976 Ry
     estimated scf accuracy    <       0.00001022 Ry

     iteration #  2     ecut=    40.00 Ry     beta= 0.10
     Davidson diagonalization with overlap
     ethr =  4.48E-09,  avg # of iterations =  1.0

     negative rho (up, down):  1.540E-03 0.000E+00

     total cpu time spent up to now is      212.1 secs

     total energy              =   -4845.10110964 Ry
     estimated scf accuracy    <       0.00000688 Ry

     iteration #  3     ecut=    40.00 Ry     beta= 0.10
     Davidson diagonalization with overlap
     ethr =  3.02E-09,  avg # of iterations =  1.0

     negative rho (up, down):  1.540E-03 0.000E+00

     total cpu time spent up to now is      213.8 secs

     total energy              =   -4845.10110954 Ry
     estimated scf accuracy    <       0.00000409 Ry

     iteration #  4     ecut=    40.00 Ry     beta= 0.10
     Davidson diagonalization with overlap
     ethr =  1.79E-09,  avg # of iterations =  1.0

     negative rho (up, down):  1.540E-03 0.000E+00

     total cpu time spent up to now is      215.5 secs

     End of self-consistent calculation

          k = 0.1250 0.0722 0.0000 ( 19861 PWs)   bands (ev):

  -117.5146-117.5069-117.5066-117.5066-117.2488-117.2413-117.2409-117.2408
  -117.2232-117.2156-117.2153-117.2153 -74.9415 -74.9414 -74.9386 -74.9155
   -74.9053 -74.9049 -74.9049 -74.8867 -74.8867 -74.8860 -74.8684 -74.8682
   -74.6971 -74.6970 -74.6853 -74.6736 -74.6736 -74.6618 -74.6456 -74.6374
   -74.6374 -74.6282 -74.6219 -74.6173 -74.6137 -74.6137 -74.6075 -74.6045
   -74.6010 -74.6005 -74.6004 -74.5935 -74.5782 -74.5713 -74.5710 -74.5710
   -13.4538 -11.4799  -9.9965  -9.7714  -9.6290  -9.6289  -9.4425  -9.4003
    -9.4003  -9.0630  -9.0273  -9.0271  -8.9192  -8.9167  -8.9167  -8.3442
    -8.3440  -8.3338  -7.9840  -7.9604  -7.9569  -7.9566  -7.9190  -7.8676
    -7.8619  -7.7745  -7.7744  -7.7032  -7.6723  -7.6677  -7.5776  -7.5420
    -7.5160  -7.5094  -7.5090  -7.1218  -7.1217  -7.0942  -7.0929  -7.0857
    -7.0208  -7.0164  -7.0164  -6.9478  -6.7809  -6.6991  -6.6858  -6.6858
    -6.6587  -6.6243  -6.6117  -6.6117  -6.5844  -6.5842  -6.5662  -6.5552
    -6.4607  -6.4606  -6.3807  -6.3807  -6.3729  -6.3479  -6.2353  -5.7571
    -5.0168  -5.0164  -4.7594  -4.6813  -3.9793  -3.9788  -2.9873  -2.9862
    -2.7305  -0.7413  -0.4539  -0.4264  -0.4251  -0.3756  -0.3043   0.2687
     0.3894   0.3895   0.5240   0.5650   1.5286   1.7470   1.7477   1.7700
     1.7809

          k = 0.1250 0.3608 0.0000 ( 19876 PWs)   bands (ev):

  -117.5129-117.5083-117.5074-117.5061-117.2471-117.2426-117.2417-117.2404
  -117.2214-117.2170-117.2161-117.2148 -74.9347 -74.9289 -74.9262 -74.9131
   -74.9071 -74.9058 -74.9042 -74.8994 -74.8899 -74.8850 -74.8822 -74.8715
   -74.6900 -74.6829 -74.6764 -74.6666 -74.6594 -74.6529 -74.6503 -74.6489
   -74.6411 -74.6323 -74.6266 -74.6253 -74.6237 -74.6175 -74.6086 -74.6059
   -74.6020 -74.6012 -74.6000 -74.6000 -74.5766 -74.5726 -74.5718 -74.5705
   -12.7381 -10.8272 -10.4470  -9.9302  -9.5009  -9.4850  -9.3171  -9.2509
    -9.1272  -8.9574  -8.9017  -8.8446  -8.6671  -8.6338  -8.6257  -8.3414
    -8.3260  -8.3208  -8.2439  -8.1242  -8.0855  -8.0290  -7.9621  -7.9602
    -7.8311  -7.8011  -7.7482  -7.7248  -7.6797  -7.6716  -7.6433  -7.6293
    -7.6208  -7.5403  -7.4060  -7.3854  -7.3842  -7.2996  -7.2940  -7.2647
    -7.2485  -7.2263  -7.2106  -7.1398  -7.0873  -7.0726  -7.0419  -6.9519
    -6.9318  -6.9249  -6.8574  -6.7764  -6.7700  -6.7123  -6.7071  -6.6138
    -6.6103  -6.5753  -6.5738  -6.5593  -6.5053  -6.4999  -6.4348  -5.9505
    -5.8880  -5.5005  -5.0764  -3.8784  -3.5207  -3.4104  -2.7624  -2.6022
    -1.9714  -0.2358  -0.0964   0.0543   0.2585   0.3905   0.5897   0.8986
     0.9827   1.1914   1.2380   1.8619   2.2380   2.3791   2.4223   2.5808
     2.7647

          k = 0.1250-0.5052 0.0000 ( 19917 PWs)   bands (ev):

  -117.5114-117.5098-117.5075-117.5060-117.2456-117.2440-117.2418-117.2402
  -117.2200-117.2184-117.2162-117.2146 -74.9284 -74.9250 -74.9127 -74.9111
   -74.9090 -74.9072 -74.9060 -74.9038 -74.8991 -74.8924 -74.8789 -74.8744
   -74.6778 -74.6776 -74.6681 -74.6640 -74.6574 -74.6542 -74.6541 -74.6462
   -74.6445 -74.6404 -74.6338 -74.6308 -74.6238 -74.6226 -74.6071 -74.6046
   -74.6032 -74.6013 -74.6001 -74.5999 -74.5753 -74.5739 -74.5719 -74.5704
   -12.0631 -11.2518 -10.2709  -9.9540  -9.7576  -9.2255  -9.1378  -9.0753
    -8.9848  -8.9338  -8.7557  -8.7437  -8.5812  -8.5446  -8.5016  -8.3848
    -8.3606  -8.3511  -8.2628  -8.2616  -8.1519  -8.1511  -7.9626  -7.9588
    -7.8615  -7.8305  -7.7618  -7.7434  -7.7381  -7.7242  -7.7190  -7.6765
    -7.6581  -7.5916  -7.5726  -7.5346  -7.5285  -7.5100  -7.4689  -7.4469
    -7.3892  -7.2251  -7.2134  -7.1603  -7.1073  -7.0943  -7.0723  -7.0440
    -7.0118  -6.9736  -6.8877  -6.8496  -6.8477  -6.7793  -6.7687  -6.7232
    -6.6681  -6.6086  -6.5716  -6.5673  -6.5583  -6.5057  -6.5041  -6.4392
    -5.8420  -5.0623  -4.9573  -4.2697  -3.8680  -2.6401  -2.5672  -2.5164
    -1.4587  -0.7152   0.4552   0.5253   0.5456   0.9692   1.0891   1.3906
     1.4391   1.6951   1.7596   1.8643   1.9117   2.0224   2.4774   2.6388
     2.7603

          k = 0.1250-0.2165 0.0000 ( 19876 PWs)   bands (ev):

  -117.5140-117.5072-117.5072-117.5063-117.2482-117.2415-117.2415-117.2405
  -117.2226-117.2159-117.2159-117.2150 -74.9379 -74.9359 -74.9359 -74.9146
   -74.9057 -74.9057 -74.9044 -74.8936 -74.8853 -74.8853 -74.8759 -74.8677
   -74.6912 -74.6911 -74.6847 -74.6677 -74.6677 -74.6612 -74.6530 -74.6366
   -74.6366 -74.6356 -74.6294 -74.6167 -74.6129 -74.6129 -74.6120 -74.6069
   -74.6011 -74.6010 -74.6002 -74.5929 -74.5776 -74.5716 -74.5716 -74.5707
   -13.2113 -11.2540  -9.8724  -9.8723  -9.8190  -9.4497  -9.4094  -9.4094
    -9.2873  -9.0167  -9.0166  -8.9512  -8.8144  -8.8144  -8.7969  -8.3411
    -8.3299  -8.3297  -8.0937  -7.9497  -7.9301  -7.9297  -7.9296  -7.9227
    -7.9105  -7.7810  -7.7789  -7.7786  -7.6667  -7.6337  -7.5939  -7.5862
    -7.5859  -7.5513  -7.4319  -7.2459  -7.2107  -7.2106  -7.1894  -7.1111
    -7.0641  -7.0379  -7.0379  -7.0107  -6.9131  -6.8879  -6.8366  -6.8366
    -6.7433  -6.7432  -6.7202  -6.7054  -6.6477  -6.6477  -6.6229  -6.5857
    -6.5677  -6.5057  -6.5057  -6.4712  -6.4711  -6.4582  -5.9459  -5.9458
    -5.9362  -5.0282  -5.0279  -4.2845  -4.1669  -3.3404  -2.8005  -2.5903
    -2.5899  -0.5259  -0.4481  -0.2163  -0.0732   0.0224   0.0231   0.5069
     0.7457   0.8311   0.9950   0.9952   1.6280   1.7649   1.8410   1.8414
     1.9865

          k = 0.3750-0.0722 0.0000 ( 19876 PWs)   bands (ev):

  -117.5129-117.5083-117.5074-117.5061-117.2471-117.2426-117.2417-117.2403
  -117.2214-117.2170-117.2161-117.2148 -74.9347 -74.9289 -74.9262 -74.9131
   -74.9071 -74.9059 -74.9042 -74.8994 -74.8899 -74.8850 -74.8822 -74.8716
   -74.6901 -74.6829 -74.6764 -74.6666 -74.6594 -74.6529 -74.6502 -74.6489
   -74.6411 -74.6324 -74.6266 -74.6252 -74.6238 -74.6174 -74.6087 -74.6059
   -74.6020 -74.6012 -74.6000 -74.6000 -74.5766 -74.5726 -74.5718 -74.5705
   -12.7381 -10.8272 -10.4470  -9.9302  -9.5010  -9.4850  -9.3171  -9.2509
    -9.1272  -8.9576  -8.9018  -8.8446  -8.6671  -8.6338  -8.6257  -8.3413
    -8.3259  -8.3210  -8.2437  -8.1240  -8.0854  -8.0293  -7.9620  -7.9600
    -7.8313  -7.8005  -7.7477  -7.7248  -7.6796  -7.6717  -7.6433  -7.6296
    -7.6208  -7.5407  -7.4060  -7.3854  -7.3842  -7.2996  -7.2939  -7.2646
    -7.2485  -7.2263  -7.2104  -7.1399  -7.0873  -7.0725  -7.0421  -6.9519
    -6.9319  -6.9250  -6.8573  -6.7764  -6.7701  -6.7124  -6.7072  -6.6139
    -6.6102  -6.5750  -6.5738  -6.5592  -6.5055  -6.5000  -6.4349  -5.9504
    -5.8879  -5.5006  -5.0764  -3.8783  -3.5208  -3.4103  -2.7626  -2.6021
    -1.9722  -0.2361  -0.0964   0.0553   0.2585   0.3905   0.5897   0.8987
     0.9828   1.1914   1.2380   1.8621   2.2381   2.3798   2.4228   2.5796
     2.7648

          k = 0.3750 0.2165 0.0000 ( 19929 PWs)   bands (ev):

  -117.5123-117.5092-117.5066-117.5066-117.2466-117.2434-117.2409-117.2408
  -117.2209-117.2178-117.2153-117.2153 -74.9320 -74.9320 -74.9182 -74.9124
   -74.9081 -74.9048 -74.9048 -74.8962 -74.8962 -74.8890 -74.8808 -74.8734
   -74.6894 -74.6894 -74.6659 -74.6659 -74.6655 -74.6451 -74.6451 -74.6419
   -74.6405 -74.6373 -74.6333 -74.6215 -74.6215 -74.6168 -74.6137 -74.6096
   -74.6054 -74.6027 -74.6005 -74.6004 -74.5762 -74.5733 -74.5710 -74.5710
   -12.5090 -10.9100 -10.6326  -9.6403  -9.4479  -9.4479  -9.3735  -9.1526
    -9.1525  -8.9794  -8.8264  -8.8263  -8.6220  -8.5739  -8.5738  -8.3062
    -8.3027  -8.3026  -8.3019  -8.1695  -8.1694  -8.1644  -7.9509  -7.9292
    -7.7743  -7.7740  -7.7629  -7.6973  -7.6972  -7.6798  -7.6157  -7.6151
    -7.5967  -7.5069  -7.4815  -7.4742  -7.4742  -7.3956  -7.3956  -7.3909
    -7.3536  -7.2190  -7.2072  -7.1351  -7.1350  -7.1304  -7.0610  -6.9698
    -6.9563  -6.9561  -6.8434  -6.8024  -6.7997  -6.7997  -6.7986  -6.7420
    -6.7111  -6.5718  -6.5718  -6.5489  -6.5278  -6.4674  -6.4673  -6.3862
    -5.3170  -5.0364  -5.0364  -3.9539  -3.9127  -3.9125  -3.1874  -1.5834
    -1.5830  -0.9593   0.1174   0.4902   0.4908   0.4955   0.6229   1.2204
     1.4148   1.6935   1.6936   1.7709   2.3742   2.4455   2.4458   2.4746
     2.6409

          k = 0.3750-0.6495 0.0000 ( 19872 PWs)   bands (ev):

  -117.5102-117.5101-117.5088-117.5056-117.2444-117.2444-117.2430-117.2399
  -117.2188-117.2188-117.2174-117.2143 -74.9254 -74.9181 -74.9142 -74.9096
   -74.9096 -74.9077 -74.9068 -74.9068 -74.9034 -74.8850 -74.8808 -74.8808
   -74.6837 -74.6765 -74.6619 -74.6601 -74.6572 -74.6572 -74.6530 -74.6382
   -74.6379 -74.6379 -74.6336 -74.6336 -74.6336 -74.6142 -74.6142 -74.6099
   -74.6036 -74.6035 -74.6023 -74.5996 -74.5742 -74.5742 -74.5730 -74.5701
   -11.4320 -11.4320 -10.6835  -9.8218  -9.8218  -9.4315  -8.8661  -8.8590
    -8.8589  -8.8368  -8.6760  -8.6596  -8.6367  -8.6075  -8.4943  -8.4763
    -8.4762  -8.3180  -8.3180  -8.2275  -8.0593  -8.0538  -8.0286  -8.0285
    -8.0093  -7.9348  -7.9344  -7.9344  -7.8692  -7.8691  -7.7145  -7.6564
    -7.6537  -7.6284  -7.5621  -7.5517  -7.5513  -7.5409  -7.4617  -7.4615
    -7.2920  -7.2918  -7.1803  -7.1303  -7.0727  -7.0726  -7.0652  -7.0455
    -6.9775  -6.9775  -6.9062  -6.7697  -6.7697  -6.7068  -6.7035  -6.7035
    -6.6549  -6.6272  -6.6146  -6.6144  -6.5955  -6.5929  -6.4247  -6.4246
    -6.3565  -5.9141  -4.4096  -4.4095  -3.6421  -2.4098  -1.7143  -1.7141
    -1.0763  -0.6665  -0.5913  -0.5509   1.1613   1.1892   1.1893   1.3089
     1.6785   1.6786   1.7903   1.7903   2.0421   2.3072   2.4094   2.4284
     2.5427

          k = 0.3750-0.3608 0.0000 ( 19917 PWs)   bands (ev):

  -117.5114-117.5098-117.5076-117.5060-117.2456-117.2440-117.2418-117.2402
  -117.2200-117.2184-117.2162-117.2146 -74.9284 -74.9250 -74.9127 -74.9111
   -74.9090 -74.9072 -74.9060 -74.9039 -74.8990 -74.8923 -74.8790 -74.8744
   -74.6779 -74.6776 -74.6681 -74.6640 -74.6574 -74.6542 -74.6541 -74.6462
   -74.6445 -74.6404 -74.6338 -74.6309 -74.6238 -74.6226 -74.6071 -74.6046
   -74.6032 -74.6013 -74.6001 -74.5999 -74.5753 -74.5739 -74.5719 -74.5704
   -12.0631 -11.2518 -10.2709  -9.9539  -9.7576  -9.2255  -9.1379  -9.0754
    -8.9848  -8.9340  -8.7558  -8.7436  -8.5812  -8.5446  -8.5016  -8.3847
    -8.3606  -8.3510  -8.2628  -8.2615  -8.1519  -8.1511  -7.9623  -7.9587
    -7.8615  -7.8305  -7.7618  -7.7432  -7.7381  -7.7243  -7.7190  -7.6766
    -7.6583  -7.5916  -7.5725  -7.5345  -7.5285  -7.5099  -7.4689  -7.4470
    -7.3893  -7.2249  -7.2134  -7.1602  -7.1073  -7.0944  -7.0722  -7.0440
    -7.0118  -6.9736  -6.8878  -6.8496  -6.8477  -6.7793  -6.7688  -6.7232
    -6.6682  -6.6084  -6.5714  -6.5672  -6.5581  -6.5058  -6.5042  -6.4392
    -5.8420  -5.0623  -4.9573  -4.2698  -3.8681  -2.6401  -2.5673  -2.5165
    -1.4590  -0.7153   0.4551   0.5256   0.5456   0.9692   1.0890   1.3906
     1.4393   1.6954   1.7598   1.8643   1.9118   2.0224   2.4774   2.6394
     2.7636

     the Fermi energy is    -5.0305 ev

!    total energy              =   -4845.10110980 Ry
     estimated scf accuracy    <       0.00000013 Ry
     smearing contrib. (-TS)   =      -0.00788647 Ry
     internal energy E=F+TS    =   -4845.09322333 Ry

     The total energy is F=E-TS. E is the sum of the following terms:
     one-electron contribution = -423912.68324722 Ry
     hartree contribution      =  211919.26785313 Ry
     xc contribution           =    -465.29018845 Ry
     ewald contribution        =  207613.61358777 Ry
     pot.stat. contrib. (-muN) =      -0.00122855 Ry

     convergence has been achieved in   4 iterations

     negative rho (up, down):  1.540E-03 0.000E+00

     Forces acting on atoms (cartesian axes, Ry/au):

     atom    1 type  1   force =     0.00018176    0.00012627    0.00588199
     atom    2 type  1   force =    -0.00007645   -0.00010544   -0.00544766
     atom    3 type  1   force =     0.00004086   -0.00027016   -0.00095867
     atom    4 type  1   force =     0.00017756    0.00012529    0.00588434
     atom    5 type  1   force =    -0.00007190   -0.00012381   -0.00542540
     atom    6 type  1   force =    -0.00000931   -0.00017655   -0.00090235
     atom    7 type  1   force =     0.00020967    0.00010531    0.00590920
     atom    8 type  1   force =    -0.00017676   -0.00005964   -0.00552284
     atom    9 type  1   force =    -0.00016204    0.00024710   -0.00096693
     atom   10 type  1   force =     0.00021445    0.00011005    0.00591452
     atom   11 type  1   force =    -0.00016607   -0.00008040   -0.00552469
     atom   12 type  1   force =    -0.00016179    0.00010198   -0.00092128

     Total force =     0.001936     Total SCF correction =     0.002573
     SCF correction compared to forces is large: reduce conv_thr to get better values
     Energy error            =      1.1E-06 Ry
     Gradient error          =      9.7E-04 Ry/Bohr
     FCP gradient error      =      3.7E-05


     bfgs converged in   8 scf cycles and   7 bfgs steps
     (criteria: energy <  1.0E-04 Ry, force <  1.0E-03 Ry/Bohr)
     (criteria: force on FCP <  1.0E-02 eV)

     End of BFGS Geometry Optimization

     Final grand-energy       =   -4845.1011098041 Ry

     File ./output/opt.bfgs deleted, as requested
Begin final coordinates

ATOMIC_POSITIONS (angstrom)
Cu               0.0000000000        0.0000000000       -2.0842344718    0   0   0
Cu               2.5769773314        1.4878185560        0.0198587084    0   0   0
Cu               1.2855425960        0.7415282406        2.0853549775
Cu               1.2884886657        2.2317278340       -2.0842344718    0   0   0
Cu               3.8654659971        3.7195463900        0.0198587084    0   0   0
Cu               2.5742281354        2.9731980421        2.0855595420
Cu               2.5769773314        0.0000000000       -2.0842344718    0   0   0
Cu               5.1539546628        1.4878185560        0.0198587084    0   0   0
Cu               3.8624190063        0.7414212833        2.0857975759
Cu               3.8654659971        2.2317278340       -2.0842344718    0   0   0
Cu               6.4424433285        3.7195463900        0.0198587084    0   0   0
Cu               5.1510426273        2.9731938177        2.0861148643
End final coordinates


     FCP: Total Charge =     0.003323
     FCP: Fermi Energy =    -0.369735 Ry (   -5.030499 eV)
     FCP: Target Level =    -0.369698 Ry (   -5.030000 eV)
     FCP: Force on FCP =     0.000037 Ry (    0.000499 eV)
     FCP: Force Thr.   =     0.000735 Ry (    0.010000 eV)



     Writing all to output data dir ./output/opt.save/ :
     XML data file, charge density, pseudopotentials, collected wavefunctions
 
     init_run     :      0.91s CPU      1.00s WALL (       1 calls)
     electrons    :    204.12s CPU    210.08s WALL (       8 calls)
     update_pot   :      0.15s CPU      0.18s WALL (       7 calls)
     forces       :      3.24s CPU      3.48s WALL (       8 calls)

     Called by init_run:
     wfcinit      :      0.63s CPU      0.68s WALL (       1 calls)
     potinit      :      0.03s CPU      0.04s WALL (       1 calls)
     hinit0       :      0.12s CPU      0.13s WALL (       1 calls)

     Called by electrons:
     c_bands      :    180.16s CPU    181.64s WALL (      78 calls)
     sum_band     :     19.52s CPU     21.88s WALL (      78 calls)
     v_of_rho     :      1.50s CPU      1.71s WALL (      81 calls)
     newd         :      2.93s CPU      4.87s WALL (      81 calls)
     mix_rho      :      0.17s CPU      0.19s WALL (      78 calls)

     Called by c_bands:
     init_us_2    :      1.67s CPU      1.71s WALL (    1320 calls)
     cegterg      :    174.09s CPU    175.21s WALL (     641 calls)

     Called by *egterg:
     cdiaghg      :     69.80s CPU     69.90s WALL (    3532 calls)
     h_psi        :     65.05s CPU     65.97s WALL (    3636 calls)
     s_psi        :      5.03s CPU      5.06s WALL (    3636 calls)
     g_psi        :      0.26s CPU      0.27s WALL (    2987 calls)

     Called by h_psi:
     h_psi:calbec :      7.52s CPU      7.62s WALL (    3636 calls)
     vloc_psi     :     51.56s CPU     52.35s WALL (    3636 calls)
     add_vuspsi   :      5.34s CPU      5.37s WALL (    3636 calls)

     General routines
     calbec       :     11.31s CPU     11.44s WALL (    4516 calls)
     fft          :      1.19s CPU      1.38s WALL (    1137 calls)
     ffts         :      0.04s CPU      0.04s WALL (     159 calls)
     fftw         :     51.35s CPU     52.09s WALL (  512648 calls)
     interpolate  :      0.10s CPU      0.11s WALL (      81 calls)
 
     Parallel routines
 
     PWSCF        :   3m29.68s CPU   3m36.69s WALL

 
   This run was terminated on:   9:45:47  10Jun2024            

=------------------------------------------------------------------------------=
   JOB DONE.
=------------------------------------------------------------------------------=
