
     Program PWSCF v.7.3.1 starts on  9Jun2024 at 14:44:49 

     This program is part of the open-source Quantum ESPRESSO suite
     for quantum simulation of materials; please cite
         "P. Giannozzi et al., J. Phys.:Condens. Matter 21 395502 (2009);
         "P. Giannozzi et al., J. Phys.:Condens. Matter 29 465901 (2017);
         "P. Giannozzi et al., J. Chem. Phys. 152 154105 (2020);
          URL http://www.quantum-espresso.org", 
     in publications or presentations arising from this work. More details at
     http://www.quantum-espresso.org/quote

     Parallel version (MPI), running on    32 processors

     MPI processes distributed on     1 nodes
     144636 MiB available memory on the printing compute node when the environment starts
 
     Reading input from scf.in

     Current dimensions of program PWSCF are:
     Max number of different atomic species (ntypx) = 10
     Max number of k-points (npk) =  40000
     Max angular momentum in pseudopotentials (lmaxx) =  4
     Message from routine iosys_1drism:
     default density from MOL file(H2O.tip5p.Nishihara.MOL) is used
     Found identity + ( -0.0000 -0.5000  0.0000) symmetry
     This is a supercell, fractional translations are disabled
 
     R & G space division:  proc/nbgrp/npool/nimage =      32
     Subspace diagonalization in iterative solution of the eigenvalue problem:
     a serial algorithm will be used


     Molecule # 1 for H2O read from file:
     ../../../pseudo/H2O.tip5p.Nishihara.MOL
     Density:
         0.23069113E+02 cell^-1
         0.49533751E-02 bohr^-3
         0.55506881E+02 mol/L
         0.99997200E+00 g/cm^3
     Permittivity:
        78.500000
     Number of atoms:   5
     Atoms:
       #  atom      X (angs)      Y (angs)      Z (angs)      Q (e)         E (kcal/mol)  S (angs)
       1  O/h2o     0.00000000   -0.06556000    0.00000000    0.00000000    0.16000000    3.12000000
       2  H/h2o     0.75695000    0.52032000    0.00000000    0.24100000    0.04600000    1.00000000
       3  H/h2o    -0.75695000    0.52032000    0.00000000    0.24100000    0.04600000    1.00000000
       4  L/h2o     0.00000000   -0.46971000    0.57154000   -0.24100000    0.04600000    1.80000000
       5  L/h2o     0.00000000   -0.46971000   -0.57154000   -0.24100000    0.04600000    1.80000000


     Molecule # 2 for K+ read from file:
     ../../../pseudo/K+.Hagiwara.MOL
     Density:
         0.41560816E+00 cell^-1
         0.89238937E-04 bohr^-3
         0.10000000E+01 mol/L
         0.39098300E-01 g/cm^3
     Number of atoms:   1
     Atoms:
       #  atom      X (angs)      Y (angs)      Z (angs)      Q (e)         E (kcal/mol)  S (angs)
       1  K         0.00000000    0.00000000    0.00000000    1.00000000    0.00032800    4.93462800


     Molecule # 3 for OH- read from file:
     ../../../pseudo/OH-.oplsaa.MOL
     Density:
         0.41560816E+00 cell^-1
         0.89238937E-04 bohr^-3
         0.10000000E+01 mol/L
         0.17007340E-01 g/cm^3
     Number of atoms:   2
     Atoms:
       #  atom      X (angs)      Y (angs)      Z (angs)      Q (e)         E (kcal/mol)  S (angs)
       1  O/oh      0.00000000    0.00000000    0.00000000   -1.30000000    0.25000000    3.20000000
       2  H/oh      0.95300000    0.00000000    0.00000000    0.30000000    0.04600000    1.00000000


     1D-RISM info
     ------------
     closure equation        =           KH
     temperature             =     300.0000  kelvin
     coulomb smearing radius =       2.0000  bohr
     number of solvent sites =            8
     number of grids         =         5973
     maximum of R-space      =     999.8326  bohr
     maximum of G-space      =      18.7632  bohr^-1
     number of iterations    =        15000
     convergence threshold   =      1.0E-08
     Gaussian width of bonds =       0.3162  bohr
     size of MDIIS           =           20
     step of MDIIS           =       0.2000
     number of processes     =           32


     1D-RISM Calculation

     iter. #     1  RMS(g-h-1)= 7.798E-04  nbox=  0  T= 2400.00K
     iter. #   101  RMS(g-h-1)= 1.222E-06  nbox= 20  T= 1600.00K
     iter. #   201  RMS(g-h-1)= 3.438E-06  nbox= 20  T=  711.11K
     iter. #   301  RMS(g-h-1)= 2.056E-06  nbox= 20  T=  474.07K
     iter. #   401  RMS(g-h-1)= 1.763E-06  nbox= 20  T=  316.05K
     iter. #   501  RMS(g-h-1)= 4.740E-07  nbox= 20  T=  300.00K
     iter. #   601  RMS(g-h-1)= 1.617E-07  nbox= 20  T=  300.00K
     iter. #   701  RMS(g-h-1)= 1.125E-07  nbox= 20  T=  300.00K
     iter. #   801  RMS(g-h-1)= 9.036E-08  nbox= 20  T=  300.00K
     iter. #   901  RMS(g-h-1)= 7.204E-08  nbox= 20  T=  300.00K
     iter. #  1001  RMS(g-h-1)= 6.153E-08  nbox= 20  T=  300.00K
     iter. #  1101  RMS(g-h-1)= 5.274E-08  nbox= 20  T=  300.00K
     iter. #  1201  RMS(g-h-1)= 4.770E-08  nbox= 20  T=  300.00K
     iter. #  1301  RMS(g-h-1)= 4.314E-08  nbox= 20  T=  300.00K
     iter. #  1401  RMS(g-h-1)= 3.804E-08  nbox= 20  T=  300.00K
     iter. #  1501  RMS(g-h-1)= 3.312E-08  nbox= 20  T=  300.00K
     iter. #  1601  RMS(g-h-1)= 3.206E-08  nbox= 20  T=  300.00K
     iter. #  1701  RMS(g-h-1)= 3.140E-08  nbox= 20  T=  300.00K
     iter. #  1801  RMS(g-h-1)= 3.483E-08  nbox= 20  T=  300.00K
     iter. #  1901  RMS(g-h-1)= 2.990E-08  nbox= 20  T=  300.00K
     iter. #  2001  RMS(g-h-1)= 2.992E-08  nbox= 20  T=  300.00K
     iter. #  2101  RMS(g-h-1)= 2.965E-08  nbox= 20  T=  300.00K
     iter. #  2201  RMS(g-h-1)= 2.932E-08  nbox= 20  T=  300.00K
     iter. #  2301  RMS(g-h-1)= 2.916E-08  nbox= 20  T=  300.00K
     iter. #  2401  RMS(g-h-1)= 2.777E-08  nbox= 20  T=  300.00K
     iter. #  2501  RMS(g-h-1)= 2.606E-08  nbox= 20  T=  300.00K
     iter. #  2601  RMS(g-h-1)= 2.513E-08  nbox= 20  T=  300.00K
     iter. #  2701  RMS(g-h-1)= 2.404E-08  nbox= 20  T=  300.00K
     iter. #  2801  RMS(g-h-1)= 2.218E-08  nbox= 20  T=  300.00K
     iter. #  2901  RMS(g-h-1)= 2.045E-08  nbox= 20  T=  300.00K
     iter. #  3001  RMS(g-h-1)= 1.956E-08  nbox= 20  T=  300.00K
     iter. #  3101  RMS(g-h-1)= 1.851E-08  nbox= 20  T=  300.00K
     iter. #  3201  RMS(g-h-1)= 1.779E-08  nbox= 20  T=  300.00K
     iter. #  3301  RMS(g-h-1)= 1.699E-08  nbox= 20  T=  300.00K
     iter. #  3401  RMS(g-h-1)= 1.616E-08  nbox= 20  T=  300.00K
     iter. #  3501  RMS(g-h-1)= 1.501E-08  nbox= 20  T=  300.00K
     iter. #  3601  RMS(g-h-1)= 1.424E-08  nbox= 20  T=  300.00K
     iter. #  3701  RMS(g-h-1)= 1.364E-08  nbox= 20  T=  300.00K
     iter. #  3801  RMS(g-h-1)= 1.271E-08  nbox= 20  T=  300.00K
     iter. #  3901  RMS(g-h-1)= 1.207E-08  nbox= 20  T=  300.00K
     iter. #  4001  RMS(g-h-1)= 1.162E-08  nbox= 20  T=  300.00K
     iter. #  4101  RMS(g-h-1)= 1.127E-08  nbox= 20  T=  300.00K
     iter. #  4201  RMS(g-h-1)= 1.082E-08  nbox= 20  T=  300.00K
     iter. #  4301  RMS(g-h-1)= 1.016E-08  nbox= 20  T=  300.00K
     iter. #  4327  RMS(g-h-1)= 9.990E-09  nbox= 20  T=  300.00K

     End of 1D-RISM calculation


     convergence has been achieved in  4327 iterations


     Chemical potential of solvation

     H2O        H2O        Closure      0.144028E+01 kcal/mol
                           GaussFluct  -0.702227E+01 kcal/mol

                K+         Closure     -0.280532E+00 kcal/mol
                           GaussFluct  -0.350073E+00 kcal/mol

                OH-        Closure     -0.749901E+00 kcal/mol
                           GaussFluct  -0.841435E+00 kcal/mol

                Total      Closure      0.409852E+00 kcal/mol
                           GaussFluct  -0.821378E+01 kcal/mol

     K+         H2O        Closure     -0.155715E+02 kcal/mol
                           GaussFluct  -0.194314E+02 kcal/mol

                K+         Closure      0.351545E+06 kcal/mol
                           GaussFluct   0.351545E+06 kcal/mol

                OH-        Closure     -0.351595E+06 kcal/mol
                           GaussFluct  -0.351595E+06 kcal/mol

                Total      Closure     -0.662658E+02 kcal/mol
                           GaussFluct  -0.701838E+02 kcal/mol

     OH-        H2O        Closure     -0.416246E+02 kcal/mol
                           GaussFluct  -0.467054E+02 kcal/mol

                K+         Closure     -0.351595E+06 kcal/mol
                           GaussFluct  -0.351595E+06 kcal/mol

                OH-        Closure      0.351544E+06 kcal/mol
                           GaussFluct   0.351544E+06 kcal/mol

                Total      Closure     -0.925530E+02 kcal/mol
                           GaussFluct  -0.977563E+02 kcal/mol

 
     Parallelization info
     --------------------
     sticks:   dense  smooth     PW     G-vecs:    dense   smooth      PW
     Min          65      32      9                14054     4956     765
     Max          66      33     10                14087     4993     792
     Sum        2083    1039    301               450233   159127   24819
 
     Using Slab Decomposition
 


     bravais-lattice index     =            0
     lattice parameter (alat)  =       9.7396  a.u.
     unit-cell volume          =    4657.2513 (a.u.)^3
     number of atoms/cell      =           12
     number of atomic types    =            1
     number of electrons       =       228.00
     number of Kohn-Sham states=          137
     kinetic-energy cutoff     =      40.0000  Ry
     charge density cutoff     =     320.0000  Ry
     scf convergence threshold =      1.0E-06
     mixing beta               =       0.1000
     number of iterations used =            8  plain     mixing
     Exchange-correlation= SLA  PW   PBE  PBE
                           (   1   4   3   4   0   0   0)

     Effective Screening Medium Method
     =================================
     Boundary Conditions: Vacuum-Slab-Vacuum
     total charge in unit cell        =   0.0000
     grid points for fit at edges     =        4 
 

     celldm(1)=   9.739563  celldm(2)=   0.000000  celldm(3)=   0.000000
     celldm(4)=   0.000000  celldm(5)=   0.000000  celldm(6)=   0.000000

     crystal axes: (cart. coord. in units of alat)
               a(1) = (   1.000000   0.000000   0.000000 )  
               a(2) = (   0.500000   0.866025   0.000000 )  
               a(3) = (   0.000000   0.000000   5.820773 )  

     reciprocal axes: (cart. coord. in units 2 pi/alat)
               b(1) = (  1.000000 -0.577350  0.000000 )  
               b(2) = (  0.000000  1.154701  0.000000 )  
               b(3) = (  0.000000  0.000000  0.171798 )  


     PseudoPot. # 1 for Cu read from file:
     ../../../pseudo/cu_pbe_v1.2.uspp.F.UPF
     MD5 check sum: 6e991ff952a84172a2a52a1c1e996048
     Pseudo is Ultrasoft + core correction, Zval = 19.0
     Generated by new atomic code, or converted to UPF format
     Using radial grid of  867 points,  6 beta functions with: 
                l(1) =   0
                l(2) =   0
                l(3) =   1
                l(4) =   1
                l(5) =   2
                l(6) =   2
     Q(r) pseudized with  8 coefficients,  rinner =    1.150   1.150   1.150
                                                       1.150   1.150

     atomic species   valence    mass     pseudopotential
     Cu               19.00    63.54600     Cu( 1.00)

     No symmetry found



   Cartesian axes

     site n.     atom                  positions (alat units)
         1        Cu     tau(   1) = (   0.0000000   0.0000000  -0.4043952  )
         2        Cu     tau(   2) = (   0.5000000   0.2886751   0.0038531  )
         3        Cu     tau(   3) = (   0.2500000   0.1443376   0.4121014  )
         4        Cu     tau(   4) = (   0.2500000   0.4330127  -0.4043952  )
         5        Cu     tau(   5) = (   0.7500000   0.7216878   0.0038531  )
         6        Cu     tau(   6) = (   0.5000000   0.5773503   0.4121014  )
         7        Cu     tau(   7) = (   0.5000000   0.0000000  -0.4043952  )
         8        Cu     tau(   8) = (   1.0000000   0.2886751   0.0038531  )
         9        Cu     tau(   9) = (   0.7500000   0.1443376   0.4121014  )
        10        Cu     tau(  10) = (   0.7500000   0.4330127  -0.4043952  )
        11        Cu     tau(  11) = (   1.2500000   0.7216878   0.0038531  )
        12        Cu     tau(  12) = (   1.0000000   0.5773503   0.4121014  )

     number of k points=     8  Gaussian smearing, width (Ry)=  0.0100
                       cart. coord. in units 2pi/alat
        k(    1) = (   0.1250000   0.0721688   0.0000000), wk =   0.2500000
        k(    2) = (   0.1250000   0.3608439   0.0000000), wk =   0.2500000
        k(    3) = (   0.1250000  -0.5051815   0.0000000), wk =   0.2500000
        k(    4) = (   0.1250000  -0.2165064   0.0000000), wk =   0.2500000
        k(    5) = (   0.3750000  -0.0721688   0.0000000), wk =   0.2500000
        k(    6) = (   0.3750000   0.2165064   0.0000000), wk =   0.2500000
        k(    7) = (   0.3750000  -0.6495191   0.0000000), wk =   0.2500000
        k(    8) = (   0.3750000  -0.3608439   0.0000000), wk =   0.2500000

     Dense  grid:   450233 G-vectors     FFT dimensions: (  60,  60, 324)

     Smooth grid:   159127 G-vectors     FFT dimensions: (  40,  40, 240)

     Estimated max dynamical RAM per process >      71.06 MB

     Estimated total dynamical RAM >       2.22 GB

     Solute:
       # atom     E (kcal/mol)  S (angs)
       1  Cu      0.00500000    3.11369102    given
       2  Cu      0.00500000    3.11369102    given
       3  Cu      0.00500000    3.11369102    given
       4  Cu      0.00500000    3.11369102    given
       5  Cu      0.00500000    3.11369102    given
       6  Cu      0.00500000    3.11369102    given
       7  Cu      0.00500000    3.11369102    given
       8  Cu      0.00500000    3.11369102    given
       9  Cu      0.00500000    3.11369102    given
      10  Cu      0.00500000    3.11369102    given
      11  Cu      0.00500000    3.11369102    given
      12  Cu      0.00500000    3.11369102    given

     Wall:
       Density =    0.01000000  bohr^-3
       E       =    0.10000000  kcal/mol
       S       =    4.00000000  angs


     Laue-RISM info
     --------------
     closure equation        =           KH
     temperature             =     300.0000  kelvin
     coulomb smearing radius =       2.0000  bohr
     number of solvent sites =            6
     solvent sites           =    O/h2o   H/h2o   L/h2o       K
     solvent sites           =     O/oh    H/oh
     number of iterations    =        15000
     convergence threshold   =      1.0E-06
     convergence level       =       0.7000
     size of MDIIS           =           20
     step of MDIIS           =       0.1000
     solvent cutoff          =     160.0000  Ry
     Custom grid:   159127 G-vectors     FFT dimensions: (  40,  40, 240)

     Boundary Conditions        : Vacuum-Slab-Solvent
     unit-cell (in bohr)        : [ -28.345892  28.345892]
     expand-cell (in bohr)      : [ -28.345892  89.761991]
     solvent of right (in bohr) : [   0.000000  89.761991]
     buffer  of right (in bohr) : [  -4.015668   0.000000]
     repulsive wall (in bohr)   : [  -Infinity  -2.286274]
     reference of potential     : right-hand side
     #grids to fit at edges of unit-cell =    4
     Laue grid:     1039 Gxy-vectors     FFT dimensions: (  40,  40, 500)


     Initial potential from superposition of free atoms

     starting charge     216.0000, renormalised to     228.0000

     negative rho (up, down):  4.341E-03 0.000E+00

     Laue-RISM Calculation

     convergence threshold    = 1.585E-05
     iter. #     1  RMS(g-h-1)= 1.997E+00  nbox=  0
     iter. #    11  RMS(g-h-1)= 1.119E-01  nbox= 10
     iter. #    21  RMS(g-h-1)= 7.686E-02  nbox= 20
     iter. #    31  RMS(g-h-1)= 2.962E-02  nbox= 20
     iter. #    41  RMS(g-h-1)= 1.970E-02  nbox= 20
     iter. #    51  RMS(g-h-1)= 1.453E-02  nbox= 20
     iter. #    61  RMS(g-h-1)= 1.156E-02  nbox= 20
     iter. #    71  RMS(g-h-1)= 9.748E-03  nbox= 20
     iter. #    81  RMS(g-h-1)= 8.710E-03  nbox=  7
     iter. #    91  RMS(g-h-1)= 6.410E-03  nbox= 17
     iter. #   101  RMS(g-h-1)= 4.297E-03  nbox= 20
     iter. #   111  RMS(g-h-1)= 3.678E-03  nbox= 20
     iter. #   121  RMS(g-h-1)= 3.230E-03  nbox=  6
     iter. #   131  RMS(g-h-1)= 2.759E-03  nbox= 16
     iter. #   141  RMS(g-h-1)= 2.427E-03  nbox= 10
     iter. #   151  RMS(g-h-1)= 1.871E-03  nbox= 20
     iter. #   161  RMS(g-h-1)= 1.341E-03  nbox= 20
     iter. #   171  RMS(g-h-1)= 1.222E-03  nbox= 20
     iter. #   181  RMS(g-h-1)= 1.107E-03  nbox=  8
     iter. #   191  RMS(g-h-1)= 9.289E-04  nbox=  2
     iter. #   201  RMS(g-h-1)= 8.013E-04  nbox= 12
     iter. #   211  RMS(g-h-1)= 7.108E-04  nbox=  6
     iter. #   221  RMS(g-h-1)= 6.164E-04  nbox= 16
     iter. #   231  RMS(g-h-1)= 5.301E-04  nbox= 10
     iter. #   241  RMS(g-h-1)= 4.513E-04  nbox=  4
     iter. #   251  RMS(g-h-1)= 3.808E-04  nbox= 14
     iter. #   261  RMS(g-h-1)= 3.430E-04  nbox=  8
     iter. #   271  RMS(g-h-1)= 3.208E-04  nbox=  2
     iter. #   281  RMS(g-h-1)= 3.005E-04  nbox= 12
     iter. #   291  RMS(g-h-1)= 2.802E-04  nbox=  6
     iter. #   301  RMS(g-h-1)= 2.657E-04  nbox= 16
     iter. #   311  RMS(g-h-1)= 2.525E-04  nbox= 10
     iter. #   321  RMS(g-h-1)= 2.406E-04  nbox=  4
     iter. #   331  RMS(g-h-1)= 2.226E-04  nbox= 14
     iter. #   341  RMS(g-h-1)= 2.131E-04  nbox=  8
     iter. #   351  RMS(g-h-1)= 2.023E-04  nbox=  2
     iter. #   361  RMS(g-h-1)= 1.919E-04  nbox= 12
     iter. #   371  RMS(g-h-1)= 1.839E-04  nbox=  6
     iter. #   381  RMS(g-h-1)= 1.726E-04  nbox= 16
     iter. #   391  RMS(g-h-1)= 1.648E-04  nbox= 10
     iter. #   401  RMS(g-h-1)= 1.548E-04  nbox=  4
     iter. #   411  RMS(g-h-1)= 1.466E-04  nbox= 14
     iter. #   421  RMS(g-h-1)= 1.398E-04  nbox=  8
     iter. #   431  RMS(g-h-1)= 1.327E-04  nbox=  2
     iter. #   441  RMS(g-h-1)= 1.248E-04  nbox= 12
     iter. #   451  RMS(g-h-1)= 1.174E-04  nbox=  6
     iter. #   461  RMS(g-h-1)= 1.109E-04  nbox= 16
     iter. #   471  RMS(g-h-1)= 1.086E-04  nbox= 10
     iter. #   481  RMS(g-h-1)= 1.054E-04  nbox=  4
     iter. #   491  RMS(g-h-1)= 1.023E-04  nbox= 14
     iter. #   501  RMS(g-h-1)= 9.992E-05  nbox=  8
     iter. #   511  RMS(g-h-1)= 9.754E-05  nbox=  2
     iter. #   521  RMS(g-h-1)= 9.254E-05  nbox= 12
     iter. #   531  RMS(g-h-1)= 8.857E-05  nbox=  6
     iter. #   541  RMS(g-h-1)= 8.477E-05  nbox= 16
     iter. #   551  RMS(g-h-1)= 8.136E-05  nbox= 10
     iter. #   561  RMS(g-h-1)= 7.531E-05  nbox=  4
     iter. #   571  RMS(g-h-1)= 7.126E-05  nbox= 14
     iter. #   581  RMS(g-h-1)= 6.780E-05  nbox=  8
     iter. #   591  RMS(g-h-1)= 6.496E-05  nbox=  2
     iter. #   601  RMS(g-h-1)= 6.258E-05  nbox= 12
     iter. #   611  RMS(g-h-1)= 6.056E-05  nbox=  6
     iter. #   621  RMS(g-h-1)= 5.674E-05  nbox= 16
     iter. #   631  RMS(g-h-1)= 5.499E-05  nbox= 10
     iter. #   641  RMS(g-h-1)= 5.306E-05  nbox=  4
     iter. #   651  RMS(g-h-1)= 5.163E-05  nbox= 14
     iter. #   661  RMS(g-h-1)= 5.056E-05  nbox=  8
     iter. #   671  RMS(g-h-1)= 4.938E-05  nbox=  2
     iter. #   681  RMS(g-h-1)= 4.762E-05  nbox= 12
     iter. #   691  RMS(g-h-1)= 4.618E-05  nbox=  6
     iter. #   701  RMS(g-h-1)= 4.410E-05  nbox= 16
     iter. #   711  RMS(g-h-1)= 4.230E-05  nbox= 10
     iter. #   721  RMS(g-h-1)= 3.971E-05  nbox=  4
     iter. #   731  RMS(g-h-1)= 3.524E-05  nbox= 14
     iter. #   741  RMS(g-h-1)= 3.031E-05  nbox=  8
     iter. #   751  RMS(g-h-1)= 2.715E-05  nbox=  2
     iter. #   761  RMS(g-h-1)= 2.381E-05  nbox= 12
     iter. #   771  RMS(g-h-1)= 2.063E-05  nbox=  6
     iter. #   781  RMS(g-h-1)= 1.781E-05  nbox= 16
     iter. #   790  RMS(g-h-1)= 1.573E-05  nbox=  9

     End of Laue-RISM calculation


     convergence has been achieved in   790 iterations


     solvent charge   -0.00030, renormalised to    0.00000

     Total number of solvent (in expand-cell)
     H2O           32.703727
     K+             0.637303
     OH-            0.636457

     Total charge of solvent (in expand-cell)
     H2O            0.000153 e
     K+             0.637303 e
     OH-           -0.637760 e
     Total         -0.000303 e

     Chemical potential of solvation (in expand-cell)
     H2O        GaussFluct   0.543862E+01 kcal/mol
     K+         GaussFluct   0.284598E+00 kcal/mol
     OH-        GaussFluct  -0.397092E-01 kcal/mol
     Total      GaussFluct   0.568351E+01 kcal/mol

     Starting wfcs are  156 randomized atomic wfcs

     total cpu time spent up to now is      124.6 secs

     Self-consistent Calculation

     iteration #  1     ecut=    40.00 Ry     beta= 0.10
     Davidson diagonalization with overlap
     ethr =  1.00E-02,  avg # of iterations =  6.5

     negative rho (up, down):  2.234E-03 0.000E+00

     Laue-RISM Calculation

     convergence threshold    = 1.585E-05
     iter. #     1  RMS(g-h-1)= 6.952E-02  nbox=  0
     iter. #    11  RMS(g-h-1)= 9.274E-03  nbox= 10
     iter. #    21  RMS(g-h-1)= 5.008E-03  nbox= 20
     iter. #    31  RMS(g-h-1)= 3.395E-03  nbox= 20
     iter. #    41  RMS(g-h-1)= 3.065E-03  nbox= 20
     iter. #    51  RMS(g-h-1)= 2.705E-03  nbox=  8
     iter. #    61  RMS(g-h-1)= 2.269E-03  nbox=  2
     iter. #    71  RMS(g-h-1)= 1.799E-03  nbox= 12
     iter. #    81  RMS(g-h-1)= 1.434E-03  nbox= 20
     iter. #    91  RMS(g-h-1)= 1.168E-03  nbox= 20
     iter. #   101  RMS(g-h-1)= 1.126E-03  nbox=  4
     iter. #   111  RMS(g-h-1)= 1.079E-03  nbox= 14
     iter. #   121  RMS(g-h-1)= 1.002E-03  nbox=  8
     iter. #   131  RMS(g-h-1)= 9.639E-04  nbox=  2
     iter. #   141  RMS(g-h-1)= 9.276E-04  nbox= 12
     iter. #   151  RMS(g-h-1)= 8.640E-04  nbox=  6
     iter. #   161  RMS(g-h-1)= 8.171E-04  nbox= 16
     iter. #   171  RMS(g-h-1)= 7.737E-04  nbox= 10
     iter. #   181  RMS(g-h-1)= 7.441E-04  nbox=  4
     iter. #   191  RMS(g-h-1)= 7.243E-04  nbox= 14
     iter. #   201  RMS(g-h-1)= 6.732E-04  nbox=  8
     iter. #   211  RMS(g-h-1)= 6.595E-04  nbox=  2
     iter. #   221  RMS(g-h-1)= 6.137E-04  nbox= 12
     iter. #   231  RMS(g-h-1)= 5.939E-04  nbox=  6
     iter. #   241  RMS(g-h-1)= 5.752E-04  nbox= 16
     iter. #   251  RMS(g-h-1)= 5.583E-04  nbox= 10
     iter. #   261  RMS(g-h-1)= 5.388E-04  nbox=  4
     iter. #   271  RMS(g-h-1)= 5.293E-04  nbox= 14
     iter. #   281  RMS(g-h-1)= 5.595E-04  nbox=  8
     iter. #   291  RMS(g-h-1)= 6.568E-04  nbox=  2
     iter. #   301  RMS(g-h-1)= 4.713E-04  nbox= 12
     iter. #   311  RMS(g-h-1)= 4.597E-04  nbox=  4
     iter. #   321  RMS(g-h-1)= 4.509E-04  nbox= 14
     iter. #   331  RMS(g-h-1)= 4.337E-04  nbox=  8
     iter. #   341  RMS(g-h-1)= 4.262E-04  nbox=  2
     iter. #   351  RMS(g-h-1)= 4.191E-04  nbox= 12
     iter. #   361  RMS(g-h-1)= 4.036E-04  nbox=  6
     iter. #   371  RMS(g-h-1)= 3.915E-04  nbox= 16
     iter. #   381  RMS(g-h-1)= 3.754E-04  nbox= 10
     iter. #   391  RMS(g-h-1)= 3.674E-04  nbox=  4
     iter. #   401  RMS(g-h-1)= 3.582E-04  nbox= 14
     iter. #   411  RMS(g-h-1)= 3.317E-04  nbox=  8
     iter. #   421  RMS(g-h-1)= 3.637E-04  nbox=  2
     iter. #   431  RMS(g-h-1)= 3.237E-04  nbox= 12
     iter. #   441  RMS(g-h-1)= 3.192E-04  nbox=  4
     iter. #   451  RMS(g-h-1)= 3.093E-04  nbox= 14
     iter. #   461  RMS(g-h-1)= 3.041E-04  nbox=  8
     iter. #   471  RMS(g-h-1)= 3.009E-04  nbox=  2
     iter. #   481  RMS(g-h-1)= 2.971E-04  nbox= 12
     iter. #   491  RMS(g-h-1)= 2.921E-04  nbox=  6
     iter. #   501  RMS(g-h-1)= 2.842E-04  nbox= 16
     iter. #   511  RMS(g-h-1)= 2.755E-04  nbox= 10
     iter. #   521  RMS(g-h-1)= 2.670E-04  nbox=  4
     iter. #   531  RMS(g-h-1)= 2.558E-04  nbox= 14
     iter. #   541  RMS(g-h-1)= 2.368E-04  nbox=  8
     iter. #   551  RMS(g-h-1)= 2.184E-04  nbox=  2
     iter. #   561  RMS(g-h-1)= 1.996E-04  nbox= 12
     iter. #   571  RMS(g-h-1)= 1.824E-04  nbox=  6
     iter. #   581  RMS(g-h-1)= 1.687E-04  nbox= 16
     iter. #   591  RMS(g-h-1)= 1.627E-04  nbox= 10
     iter. #   601  RMS(g-h-1)= 1.561E-04  nbox=  4
     iter. #   611  RMS(g-h-1)= 1.503E-04  nbox= 14
     iter. #   621  RMS(g-h-1)= 1.466E-04  nbox=  8
     iter. #   631  RMS(g-h-1)= 1.426E-04  nbox=  2
     iter. #   641  RMS(g-h-1)= 1.387E-04  nbox= 12
     iter. #   651  RMS(g-h-1)= 1.344E-04  nbox=  6
     iter. #   661  RMS(g-h-1)= 1.292E-04  nbox= 16
     iter. #   671  RMS(g-h-1)= 1.218E-04  nbox= 10
     iter. #   681  RMS(g-h-1)= 1.160E-04  nbox=  4
     iter. #   691  RMS(g-h-1)= 1.069E-04  nbox= 14
     iter. #   701  RMS(g-h-1)= 9.680E-05  nbox=  8
     iter. #   711  RMS(g-h-1)= 8.931E-05  nbox=  2
     iter. #   721  RMS(g-h-1)= 8.174E-05  nbox= 12
     iter. #   731  RMS(g-h-1)= 7.217E-05  nbox=  6
     iter. #   741  RMS(g-h-1)= 6.602E-05  nbox= 16
     iter. #   751  RMS(g-h-1)= 5.938E-05  nbox= 10
     iter. #   761  RMS(g-h-1)= 5.434E-05  nbox=  4
     iter. #   771  RMS(g-h-1)= 5.004E-05  nbox= 14
     iter. #   781  RMS(g-h-1)= 4.742E-05  nbox=  8
     iter. #   791  RMS(g-h-1)= 4.562E-05  nbox=  2
     iter. #   801  RMS(g-h-1)= 4.395E-05  nbox= 12
     iter. #   811  RMS(g-h-1)= 4.333E-05  nbox=  6
     iter. #   821  RMS(g-h-1)= 4.287E-05  nbox= 16
     iter. #   831  RMS(g-h-1)= 4.257E-05  nbox= 10
     iter. #   841  RMS(g-h-1)= 4.226E-05  nbox=  4
     iter. #   851  RMS(g-h-1)= 4.160E-05  nbox= 14
     iter. #   861  RMS(g-h-1)= 4.108E-05  nbox=  8
     iter. #   871  RMS(g-h-1)= 4.019E-05  nbox=  2
     iter. #   881  RMS(g-h-1)= 3.875E-05  nbox= 12
     iter. #   891  RMS(g-h-1)= 3.748E-05  nbox=  6
     iter. #   901  RMS(g-h-1)= 3.526E-05  nbox= 16
     iter. #   911  RMS(g-h-1)= 3.305E-05  nbox= 10
     iter. #   921  RMS(g-h-1)= 3.106E-05  nbox=  4
     iter. #   931  RMS(g-h-1)= 2.928E-05  nbox= 14
     iter. #   941  RMS(g-h-1)= 2.682E-05  nbox=  8
     iter. #   951  RMS(g-h-1)= 2.428E-05  nbox=  2
     iter. #   961  RMS(g-h-1)= 2.162E-05  nbox= 12
     iter. #   971  RMS(g-h-1)= 2.002E-05  nbox=  6
     iter. #   981  RMS(g-h-1)= 1.851E-05  nbox= 16
     iter. #   991  RMS(g-h-1)= 1.728E-05  nbox= 10
     iter. #  1001  RMS(g-h-1)= 1.583E-05  nbox=  4

     End of Laue-RISM calculation


     convergence has been achieved in  1001 iterations


     solvent charge    0.00019, renormalised to    0.00000

     Total number of solvent (in expand-cell)
     H2O           32.728653
     K+             0.642808
     OH-            0.642045

     Total charge of solvent (in expand-cell)
     H2O            0.000068 e
     K+             0.642808 e
     OH-           -0.642687 e
     Total          0.000189 e

     Chemical potential of solvation (in expand-cell)
     H2O        GaussFluct   0.543702E+01 kcal/mol
     K+         GaussFluct   0.456261E+00 kcal/mol
     OH-        GaussFluct  -0.185056E+00 kcal/mol
     Total      GaussFluct   0.570822E+01 kcal/mol


     total cpu time spent up to now is      183.8 secs

     total energy              =   -4843.87162183 Ry
     estimated scf accuracy    <      70.28810510 Ry

     iteration #  2     ecut=    40.00 Ry     beta= 0.10
     Davidson diagonalization with overlap
     ethr =  1.00E-02,  avg # of iterations =  2.0

     negative rho (up, down):  1.129E-03 0.000E+00

     Laue-RISM Calculation

     convergence threshold    = 1.585E-05
     iter. #     1  RMS(g-h-1)= 5.750E-02  nbox=  0
     iter. #    11  RMS(g-h-1)= 1.427E-02  nbox= 10
     iter. #    21  RMS(g-h-1)= 7.513E-03  nbox= 20
     iter. #    31  RMS(g-h-1)= 4.048E-03  nbox= 20
     iter. #    41  RMS(g-h-1)= 3.216E-03  nbox= 20
     iter. #    51  RMS(g-h-1)= 2.861E-03  nbox= 20
     iter. #    61  RMS(g-h-1)= 2.469E-03  nbox=  9
     iter. #    71  RMS(g-h-1)= 2.060E-03  nbox=  3
     iter. #    81  RMS(g-h-1)= 1.773E-03  nbox= 13
     iter. #    91  RMS(g-h-1)= 1.456E-03  nbox=  7
     iter. #   101  RMS(g-h-1)= 9.052E-04  nbox= 17
     iter. #   111  RMS(g-h-1)= 7.070E-04  nbox= 20
     iter. #   121  RMS(g-h-1)= 5.640E-04  nbox=  9
     iter. #   131  RMS(g-h-1)= 4.415E-04  nbox= 19
     iter. #   141  RMS(g-h-1)= 3.536E-04  nbox= 20
     iter. #   151  RMS(g-h-1)= 2.826E-04  nbox= 20
     iter. #   161  RMS(g-h-1)= 2.496E-04  nbox= 20
     iter. #   171  RMS(g-h-1)= 2.295E-04  nbox= 20
     iter. #   181  RMS(g-h-1)= 2.223E-04  nbox=  3
     iter. #   191  RMS(g-h-1)= 1.947E-04  nbox= 13
     iter. #   201  RMS(g-h-1)= 1.830E-04  nbox=  7
     iter. #   211  RMS(g-h-1)= 1.732E-04  nbox= 17
     iter. #   221  RMS(g-h-1)= 1.675E-04  nbox= 11
     iter. #   231  RMS(g-h-1)= 1.592E-04  nbox=  5
     iter. #   241  RMS(g-h-1)= 1.525E-04  nbox= 15
     iter. #   251  RMS(g-h-1)= 1.476E-04  nbox=  9
     iter. #   261  RMS(g-h-1)= 1.398E-04  nbox=  3
     iter. #   271  RMS(g-h-1)= 1.355E-04  nbox= 13
     iter. #   281  RMS(g-h-1)= 1.284E-04  nbox=  7
     iter. #   291  RMS(g-h-1)= 1.176E-04  nbox= 17
     iter. #   301  RMS(g-h-1)= 9.278E-05  nbox= 11
     iter. #   311  RMS(g-h-1)= 7.697E-05  nbox=  5
     iter. #   321  RMS(g-h-1)= 6.273E-05  nbox= 15
     iter. #   331  RMS(g-h-1)= 5.607E-05  nbox=  9
     iter. #   341  RMS(g-h-1)= 5.332E-05  nbox=  3
     iter. #   351  RMS(g-h-1)= 5.108E-05  nbox= 13
     iter. #   361  RMS(g-h-1)= 4.932E-05  nbox=  7
     iter. #   371  RMS(g-h-1)= 4.781E-05  nbox= 17
     iter. #   381  RMS(g-h-1)= 4.666E-05  nbox= 11
     iter. #   391  RMS(g-h-1)= 4.567E-05  nbox=  5
     iter. #   401  RMS(g-h-1)= 4.457E-05  nbox= 15
     iter. #   411  RMS(g-h-1)= 4.363E-05  nbox=  9
     iter. #   421  RMS(g-h-1)= 4.239E-05  nbox=  3
     iter. #   431  RMS(g-h-1)= 4.112E-05  nbox= 13
     iter. #   441  RMS(g-h-1)= 3.951E-05  nbox=  7
     iter. #   451  RMS(g-h-1)= 3.765E-05  nbox= 17
     iter. #   461  RMS(g-h-1)= 3.598E-05  nbox= 11
     iter. #   471  RMS(g-h-1)= 3.448E-05  nbox=  5
     iter. #   481  RMS(g-h-1)= 3.281E-05  nbox= 15
     iter. #   491  RMS(g-h-1)= 3.153E-05  nbox=  9
     iter. #   501  RMS(g-h-1)= 2.978E-05  nbox=  3
     iter. #   511  RMS(g-h-1)= 2.842E-05  nbox= 13
     iter. #   521  RMS(g-h-1)= 2.628E-05  nbox=  7
     iter. #   531  RMS(g-h-1)= 2.489E-05  nbox= 17
     iter. #   541  RMS(g-h-1)= 2.382E-05  nbox= 11
     iter. #   551  RMS(g-h-1)= 2.305E-05  nbox=  5
     iter. #   561  RMS(g-h-1)= 2.251E-05  nbox= 15
     iter. #   571  RMS(g-h-1)= 2.217E-05  nbox=  9
     iter. #   581  RMS(g-h-1)= 2.190E-05  nbox=  3
     iter. #   591  RMS(g-h-1)= 2.111E-05  nbox= 13
     iter. #   601  RMS(g-h-1)= 2.036E-05  nbox=  7
     iter. #   611  RMS(g-h-1)= 1.936E-05  nbox= 17
     iter. #   621  RMS(g-h-1)= 1.863E-05  nbox= 11
     iter. #   631  RMS(g-h-1)= 1.812E-05  nbox=  5
     iter. #   641  RMS(g-h-1)= 1.762E-05  nbox= 15
     iter. #   651  RMS(g-h-1)= 1.730E-05  nbox=  9
     iter. #   661  RMS(g-h-1)= 1.707E-05  nbox=  3
     iter. #   671  RMS(g-h-1)= 1.682E-05  nbox= 13
     iter. #   681  RMS(g-h-1)= 1.634E-05  nbox=  7
     iter. #   691  RMS(g-h-1)= 1.611E-05  nbox= 17
     iter. #   698  RMS(g-h-1)= 1.582E-05  nbox=  8

     End of Laue-RISM calculation


     convergence has been achieved in   698 iterations


     solvent charge   -0.00178, renormalised to    0.00000

     Total number of solvent (in expand-cell)
     H2O           32.738838
     K+             0.643304
     OH-            0.643836

     Total charge of solvent (in expand-cell)
     H2O           -0.000090 e
     K+             0.643304 e
     OH-           -0.644995 e
     Total         -0.001782 e

     Chemical potential of solvation (in expand-cell)
     H2O        GaussFluct   0.533163E+01 kcal/mol
     K+         GaussFluct  -0.112541E+01 kcal/mol
     OH-        GaussFluct   0.141846E+01 kcal/mol
     Total      GaussFluct   0.562468E+01 kcal/mol


     total cpu time spent up to now is      224.9 secs

     total energy              =   -4841.50094419 Ry
     estimated scf accuracy    <      22.27704118 Ry

     iteration #  3     ecut=    40.00 Ry     beta= 0.10
     Davidson diagonalization with overlap
     ethr =  9.77E-03,  avg # of iterations =  2.0

     negative rho (up, down):  6.036E-04 0.000E+00

     Laue-RISM Calculation

     convergence threshold    = 1.585E-05
     iter. #     1  RMS(g-h-1)= 2.545E-02  nbox=  0
     iter. #    11  RMS(g-h-1)= 2.426E-03  nbox= 10
     iter. #    21  RMS(g-h-1)= 1.123E-03  nbox= 20
     iter. #    31  RMS(g-h-1)= 7.295E-04  nbox= 20
     iter. #    41  RMS(g-h-1)= 6.379E-04  nbox=  2
     iter. #    51  RMS(g-h-1)= 4.107E-04  nbox= 12
     iter. #    61  RMS(g-h-1)= 3.055E-04  nbox= 20
     iter. #    71  RMS(g-h-1)= 2.173E-04  nbox= 20
     iter. #    81  RMS(g-h-1)= 1.895E-04  nbox= 20
     iter. #    91  RMS(g-h-1)= 1.676E-04  nbox=  6
     iter. #   101  RMS(g-h-1)= 1.308E-04  nbox= 16
     iter. #   111  RMS(g-h-1)= 1.134E-04  nbox=  2
     iter. #   121  RMS(g-h-1)= 9.126E-05  nbox= 12
     iter. #   131  RMS(g-h-1)= 7.336E-05  nbox= 20
     iter. #   141  RMS(g-h-1)= 6.115E-05  nbox=  6
     iter. #   151  RMS(g-h-1)= 5.333E-05  nbox= 16
     iter. #   161  RMS(g-h-1)= 4.983E-05  nbox= 10
     iter. #   171  RMS(g-h-1)= 4.745E-05  nbox=  4
     iter. #   181  RMS(g-h-1)= 4.329E-05  nbox= 14
     iter. #   191  RMS(g-h-1)= 3.614E-05  nbox=  8
     iter. #   201  RMS(g-h-1)= 2.817E-05  nbox= 18
     iter. #   211  RMS(g-h-1)= 2.421E-05  nbox=  3
     iter. #   221  RMS(g-h-1)= 1.931E-05  nbox= 13
     iter. #   231  RMS(g-h-1)= 1.670E-05  nbox=  7
     iter. #   237  RMS(g-h-1)= 1.571E-05  nbox= 13

     End of Laue-RISM calculation


     convergence has been achieved in   237 iterations


     solvent charge   -0.00071, renormalised to    0.00000

     Total number of solvent (in expand-cell)
     H2O           32.737272
     K+             0.644641
     OH-            0.644274

     Total charge of solvent (in expand-cell)
     H2O            0.000264 e
     K+             0.644641 e
     OH-           -0.645615 e
     Total         -0.000710 e

     Chemical potential of solvation (in expand-cell)
     H2O        GaussFluct   0.530446E+01 kcal/mol
     K+         GaussFluct   0.256245E+01 kcal/mol
     OH-        GaussFluct  -0.226513E+01 kcal/mol
     Total      GaussFluct   0.560178E+01 kcal/mol


     total cpu time spent up to now is      240.4 secs

     total energy              =   -4843.35394244 Ry
     estimated scf accuracy    <       3.47054129 Ry

     iteration #  4     ecut=    40.00 Ry     beta= 0.10
     Davidson diagonalization with overlap
     ethr =  1.52E-03,  avg # of iterations =  5.6

     negative rho (up, down):  4.031E-04 0.000E+00

     Laue-RISM Calculation

     convergence threshold    = 1.585E-05
     iter. #     1  RMS(g-h-1)= 1.734E-02  nbox=  0
     iter. #    11  RMS(g-h-1)= 2.148E-03  nbox= 10
     iter. #    21  RMS(g-h-1)= 1.207E-03  nbox= 20
     iter. #    31  RMS(g-h-1)= 8.097E-04  nbox= 20
     iter. #    41  RMS(g-h-1)= 7.085E-04  nbox= 20
     iter. #    51  RMS(g-h-1)= 5.844E-04  nbox= 11
     iter. #    61  RMS(g-h-1)= 4.828E-04  nbox=  5
     iter. #    71  RMS(g-h-1)= 3.291E-04  nbox= 15
     iter. #    81  RMS(g-h-1)= 2.394E-04  nbox= 20
     iter. #    91  RMS(g-h-1)= 2.069E-04  nbox= 20
     iter. #   101  RMS(g-h-1)= 1.997E-04  nbox=  6
     iter. #   111  RMS(g-h-1)= 1.857E-04  nbox= 16
     iter. #   121  RMS(g-h-1)= 1.661E-04  nbox= 10
     iter. #   131  RMS(g-h-1)= 1.441E-04  nbox=  4
     iter. #   141  RMS(g-h-1)= 1.227E-04  nbox= 14
     iter. #   151  RMS(g-h-1)= 9.868E-05  nbox=  8
     iter. #   161  RMS(g-h-1)= 7.865E-05  nbox= 18
     iter. #   171  RMS(g-h-1)= 6.829E-05  nbox=  4
     iter. #   181  RMS(g-h-1)= 5.900E-05  nbox= 14
     iter. #   191  RMS(g-h-1)= 5.209E-05  nbox=  8
     iter. #   201  RMS(g-h-1)= 4.694E-05  nbox=  2
     iter. #   211  RMS(g-h-1)= 4.281E-05  nbox= 12
     iter. #   221  RMS(g-h-1)= 3.993E-05  nbox=  6
     iter. #   231  RMS(g-h-1)= 3.806E-05  nbox= 16
     iter. #   241  RMS(g-h-1)= 3.633E-05  nbox= 10
     iter. #   251  RMS(g-h-1)= 3.536E-05  nbox=  4
     iter. #   261  RMS(g-h-1)= 3.381E-05  nbox= 14
     iter. #   271  RMS(g-h-1)= 3.307E-05  nbox=  8
     iter. #   281  RMS(g-h-1)= 3.196E-05  nbox=  2
     iter. #   291  RMS(g-h-1)= 3.087E-05  nbox= 12
     iter. #   301  RMS(g-h-1)= 2.963E-05  nbox=  6
     iter. #   311  RMS(g-h-1)= 2.766E-05  nbox= 16
     iter. #   321  RMS(g-h-1)= 2.545E-05  nbox= 10
     iter. #   331  RMS(g-h-1)= 2.352E-05  nbox=  4
     iter. #   341  RMS(g-h-1)= 2.216E-05  nbox= 14
     iter. #   351  RMS(g-h-1)= 2.121E-05  nbox=  8
     iter. #   361  RMS(g-h-1)= 2.096E-05  nbox=  2
     iter. #   371  RMS(g-h-1)= 2.063E-05  nbox= 12
     iter. #   381  RMS(g-h-1)= 2.038E-05  nbox=  6
     iter. #   391  RMS(g-h-1)= 2.016E-05  nbox= 16
     iter. #   401  RMS(g-h-1)= 1.984E-05  nbox= 10
     iter. #   411  RMS(g-h-1)= 1.923E-05  nbox=  4
     iter. #   421  RMS(g-h-1)= 1.856E-05  nbox= 14
     iter. #   431  RMS(g-h-1)= 1.796E-05  nbox=  8
     iter. #   441  RMS(g-h-1)= 1.739E-05  nbox=  2
     iter. #   451  RMS(g-h-1)= 1.665E-05  nbox= 12
     iter. #   461  RMS(g-h-1)= 1.631E-05  nbox=  6
     iter. #   471  RMS(g-h-1)= 1.603E-05  nbox= 16
     iter. #   477  RMS(g-h-1)= 1.583E-05  nbox=  6

     End of Laue-RISM calculation


     convergence has been achieved in   477 iterations


     solvent charge   -0.00208, renormalised to   -0.00000

     Total number of solvent (in expand-cell)
     H2O           32.733310
     K+             0.643088
     OH-            0.643564

     Total charge of solvent (in expand-cell)
     H2O           -0.000028 e
     K+             0.643088 e
     OH-           -0.645140 e
     Total         -0.002080 e

     Chemical potential of solvation (in expand-cell)
     H2O        GaussFluct   0.534557E+01 kcal/mol
     K+         GaussFluct  -0.322954E+01 kcal/mol
     OH-        GaussFluct   0.352660E+01 kcal/mol
     Total      GaussFluct   0.564263E+01 kcal/mol


     total cpu time spent up to now is      269.8 secs

     total energy              =   -4844.86558080 Ry
     estimated scf accuracy    <       0.79721195 Ry

     iteration #  5     ecut=    40.00 Ry     beta= 0.10
     Davidson diagonalization with overlap
     c_bands:  3 eigenvalues not converged
     c_bands:  1 eigenvalues not converged
     c_bands:  1 eigenvalues not converged
     c_bands:  2 eigenvalues not converged
     c_bands:  1 eigenvalues not converged
     c_bands:  1 eigenvalues not converged
     c_bands:  2 eigenvalues not converged
     c_bands:  1 eigenvalues not converged
     ethr =  3.50E-04,  avg # of iterations = 20.0

     negative rho (up, down):  2.247E-04 0.000E+00

     Laue-RISM Calculation

     convergence threshold    = 1.585E-05
     iter. #     1  RMS(g-h-1)= 6.341E-03  nbox=  0
     iter. #    11  RMS(g-h-1)= 9.471E-04  nbox= 10
     iter. #    21  RMS(g-h-1)= 5.014E-04  nbox= 20
     iter. #    31  RMS(g-h-1)= 3.074E-04  nbox= 20
     iter. #    41  RMS(g-h-1)= 2.579E-04  nbox= 20
     iter. #    51  RMS(g-h-1)= 2.359E-04  nbox= 20
     iter. #    61  RMS(g-h-1)= 2.140E-04  nbox=  9
     iter. #    71  RMS(g-h-1)= 1.915E-04  nbox=  3
     iter. #    81  RMS(g-h-1)= 1.709E-04  nbox= 13
     iter. #    91  RMS(g-h-1)= 1.637E-04  nbox=  7
     iter. #   101  RMS(g-h-1)= 1.567E-04  nbox= 17
     iter. #   111  RMS(g-h-1)= 1.505E-04  nbox= 11
     iter. #   121  RMS(g-h-1)= 1.465E-04  nbox=  5
     iter. #   131  RMS(g-h-1)= 1.435E-04  nbox= 15
     iter. #   141  RMS(g-h-1)= 1.370E-04  nbox=  9
     iter. #   151  RMS(g-h-1)= 1.322E-04  nbox=  3
     iter. #   161  RMS(g-h-1)= 1.236E-04  nbox= 13
     iter. #   171  RMS(g-h-1)= 1.026E-04  nbox= 20
     iter. #   181  RMS(g-h-1)= 9.600E-05  nbox= 20
     iter. #   191  RMS(g-h-1)= 8.775E-05  nbox= 11
     iter. #   201  RMS(g-h-1)= 7.367E-05  nbox=  5
     iter. #   211  RMS(g-h-1)= 6.820E-05  nbox= 15
     iter. #   221  RMS(g-h-1)= 6.367E-05  nbox=  9
     iter. #   231  RMS(g-h-1)= 6.211E-05  nbox=  3
     iter. #   241  RMS(g-h-1)= 6.114E-05  nbox= 13
     iter. #   251  RMS(g-h-1)= 6.040E-05  nbox=  7
     iter. #   261  RMS(g-h-1)= 5.715E-05  nbox= 17
     iter. #   271  RMS(g-h-1)= 5.415E-05  nbox= 11
     iter. #   281  RMS(g-h-1)= 5.096E-05  nbox=  5
     iter. #   291  RMS(g-h-1)= 4.736E-05  nbox= 15
     iter. #   301  RMS(g-h-1)= 4.326E-05  nbox=  9
     iter. #   311  RMS(g-h-1)= 4.076E-05  nbox=  3
     iter. #   321  RMS(g-h-1)= 3.873E-05  nbox= 13
     iter. #   331  RMS(g-h-1)= 3.553E-05  nbox=  7
     iter. #   341  RMS(g-h-1)= 3.360E-05  nbox= 17
     iter. #   351  RMS(g-h-1)= 3.122E-05  nbox= 11
     iter. #   361  RMS(g-h-1)= 2.919E-05  nbox=  5
     iter. #   371  RMS(g-h-1)= 2.748E-05  nbox= 15
     iter. #   381  RMS(g-h-1)= 2.497E-05  nbox=  9
     iter. #   391  RMS(g-h-1)= 2.378E-05  nbox=  3
     iter. #   401  RMS(g-h-1)= 2.302E-05  nbox= 13
     iter. #   411  RMS(g-h-1)= 2.205E-05  nbox=  7
     iter. #   421  RMS(g-h-1)= 2.136E-05  nbox= 17
     iter. #   431  RMS(g-h-1)= 2.077E-05  nbox= 11
     iter. #   441  RMS(g-h-1)= 2.031E-05  nbox=  5
     iter. #   451  RMS(g-h-1)= 1.975E-05  nbox= 15
     iter. #   461  RMS(g-h-1)= 1.888E-05  nbox=  9
     iter. #   471  RMS(g-h-1)= 1.837E-05  nbox=  3
     iter. #   481  RMS(g-h-1)= 1.772E-05  nbox= 13
     iter. #   491  RMS(g-h-1)= 1.669E-05  nbox=  7
     iter. #   501  RMS(g-h-1)= 1.616E-05  nbox= 17
     iter. #   508  RMS(g-h-1)= 1.581E-05  nbox=  8

     End of Laue-RISM calculation


     convergence has been achieved in   508 iterations


     solvent charge   -0.00094, renormalised to   -0.00000

     Total number of solvent (in expand-cell)
     H2O           32.730698
     K+             0.642728
     OH-            0.643059

     Total charge of solvent (in expand-cell)
     H2O            0.000072 e
     K+             0.642728 e
     OH-           -0.643743 e
     Total         -0.000944 e

     Chemical potential of solvation (in expand-cell)
     H2O        GaussFluct   0.534986E+01 kcal/mol
     K+         GaussFluct   0.132334E+01 kcal/mol
     OH-        GaussFluct  -0.103007E+01 kcal/mol
     Total      GaussFluct   0.564313E+01 kcal/mol


     total cpu time spent up to now is      304.5 secs

     total energy              =   -4845.01777336 Ry
     estimated scf accuracy    <       0.25778378 Ry

     iteration #  6     ecut=    40.00 Ry     beta= 0.10
     Davidson diagonalization with overlap
     c_bands:  5 eigenvalues not converged
     c_bands:  5 eigenvalues not converged
     c_bands:  5 eigenvalues not converged
     c_bands:  1 eigenvalues not converged
     c_bands:  1 eigenvalues not converged
     c_bands:  2 eigenvalues not converged
     ethr =  1.13E-04,  avg # of iterations = 56.1

     negative rho (up, down):  2.399E-04 0.000E+00

     Laue-RISM Calculation

     convergence threshold    = 1.585E-05
     iter. #     1  RMS(g-h-1)= 8.713E-03  nbox=  0
     iter. #    11  RMS(g-h-1)= 1.025E-03  nbox= 10
     iter. #    21  RMS(g-h-1)= 5.860E-04  nbox= 20
     iter. #    31  RMS(g-h-1)= 3.791E-04  nbox= 20
     iter. #    41  RMS(g-h-1)= 3.228E-04  nbox= 20
     iter. #    51  RMS(g-h-1)= 3.115E-04  nbox= 20
     iter. #    61  RMS(g-h-1)= 2.751E-04  nbox= 10
     iter. #    71  RMS(g-h-1)= 1.849E-04  nbox= 20
     iter. #    81  RMS(g-h-1)= 1.416E-04  nbox= 20
     iter. #    91  RMS(g-h-1)= 1.382E-04  nbox= 20
     iter. #   101  RMS(g-h-1)= 1.298E-04  nbox= 10
     iter. #   111  RMS(g-h-1)= 1.212E-04  nbox=  4
     iter. #   121  RMS(g-h-1)= 1.199E-04  nbox= 14
     iter. #   131  RMS(g-h-1)= 1.059E-04  nbox=  8
     iter. #   141  RMS(g-h-1)= 9.933E-05  nbox=  2
     iter. #   151  RMS(g-h-1)= 9.688E-05  nbox= 12
     iter. #   161  RMS(g-h-1)= 9.159E-05  nbox=  6
     iter. #   171  RMS(g-h-1)= 8.764E-05  nbox= 16
     iter. #   181  RMS(g-h-1)= 8.565E-05  nbox= 10
     iter. #   191  RMS(g-h-1)= 8.215E-05  nbox=  4
     iter. #   201  RMS(g-h-1)= 7.491E-05  nbox= 14
     iter. #   211  RMS(g-h-1)= 6.736E-05  nbox=  8
     iter. #   221  RMS(g-h-1)= 6.272E-05  nbox=  2
     iter. #   231  RMS(g-h-1)= 5.915E-05  nbox= 12
     iter. #   241  RMS(g-h-1)= 5.795E-05  nbox=  6
     iter. #   251  RMS(g-h-1)= 5.476E-05  nbox= 16
     iter. #   261  RMS(g-h-1)= 5.310E-05  nbox= 10
     iter. #   271  RMS(g-h-1)= 5.132E-05  nbox=  4
     iter. #   281  RMS(g-h-1)= 4.961E-05  nbox= 14
     iter. #   291  RMS(g-h-1)= 4.820E-05  nbox=  8
     iter. #   301  RMS(g-h-1)= 4.629E-05  nbox=  2
     iter. #   311  RMS(g-h-1)= 4.334E-05  nbox= 12
     iter. #   321  RMS(g-h-1)= 4.046E-05  nbox=  6
     iter. #   331  RMS(g-h-1)= 3.682E-05  nbox= 16
     iter. #   341  RMS(g-h-1)= 3.536E-05  nbox= 10
     iter. #   351  RMS(g-h-1)= 3.402E-05  nbox=  4
     iter. #   361  RMS(g-h-1)= 3.252E-05  nbox= 14
     iter. #   371  RMS(g-h-1)= 3.123E-05  nbox=  8
     iter. #   381  RMS(g-h-1)= 3.050E-05  nbox=  2
     iter. #   391  RMS(g-h-1)= 2.992E-05  nbox= 12
     iter. #   401  RMS(g-h-1)= 2.922E-05  nbox=  6
     iter. #   411  RMS(g-h-1)= 2.788E-05  nbox= 16
     iter. #   421  RMS(g-h-1)= 2.498E-05  nbox= 10
     iter. #   431  RMS(g-h-1)= 2.241E-05  nbox=  4
     iter. #   441  RMS(g-h-1)= 2.084E-05  nbox= 14
     iter. #   451  RMS(g-h-1)= 1.957E-05  nbox=  8
     iter. #   461  RMS(g-h-1)= 1.866E-05  nbox=  2
     iter. #   471  RMS(g-h-1)= 1.740E-05  nbox= 12
     iter. #   481  RMS(g-h-1)= 1.660E-05  nbox=  6
     iter. #   491  RMS(g-h-1)= 1.601E-05  nbox= 16
     iter. #   495  RMS(g-h-1)= 1.581E-05  nbox=  4

     End of Laue-RISM calculation


     convergence has been achieved in   495 iterations


     solvent charge   -0.00092, renormalised to   -0.00000

     Total number of solvent (in expand-cell)
     H2O           32.725353
     K+             0.643291
     OH-            0.642842

     Total charge of solvent (in expand-cell)
     H2O            0.000132 e
     K+             0.643291 e
     OH-           -0.644344 e
     Total         -0.000922 e

     Chemical potential of solvation (in expand-cell)
     H2O        GaussFluct   0.535791E+01 kcal/mol
     K+         GaussFluct   0.216482E+00 kcal/mol
     OH-        GaussFluct   0.706969E-01 kcal/mol
     Total      GaussFluct   0.564509E+01 kcal/mol


     total cpu time spent up to now is      347.8 secs

     total energy              =   -4845.08196573 Ry
     estimated scf accuracy    <       0.16540375 Ry

     iteration #  7     ecut=    40.00 Ry     beta= 0.10
     Davidson diagonalization with overlap
     c_bands:  4 eigenvalues not converged
     c_bands:  1 eigenvalues not converged
     c_bands:  2 eigenvalues not converged
     c_bands:  1 eigenvalues not converged
     c_bands:  1 eigenvalues not converged
     ethr =  7.25E-05,  avg # of iterations = 13.2

     negative rho (up, down):  1.061E-03 0.000E+00

     Laue-RISM Calculation

     convergence threshold    = 1.033E-05
     iter. #     1  RMS(g-h-1)= 8.675E-03  nbox=  0
     iter. #    11  RMS(g-h-1)= 5.491E-04  nbox= 10
     iter. #    21  RMS(g-h-1)= 2.078E-04  nbox= 20
     iter. #    31  RMS(g-h-1)= 1.385E-04  nbox= 20
     iter. #    41  RMS(g-h-1)= 1.191E-04  nbox= 20
     iter. #    51  RMS(g-h-1)= 9.817E-05  nbox= 20
     iter. #    61  RMS(g-h-1)= 7.928E-05  nbox= 20
     iter. #    71  RMS(g-h-1)= 7.226E-05  nbox= 20
     iter. #    81  RMS(g-h-1)= 5.843E-05  nbox= 10
     iter. #    91  RMS(g-h-1)= 4.712E-05  nbox=  4
     iter. #   101  RMS(g-h-1)= 3.712E-05  nbox= 14
     iter. #   111  RMS(g-h-1)= 3.302E-05  nbox=  2
     iter. #   121  RMS(g-h-1)= 3.055E-05  nbox= 12
     iter. #   131  RMS(g-h-1)= 2.809E-05  nbox=  6
     iter. #   141  RMS(g-h-1)= 2.710E-05  nbox= 16
     iter. #   151  RMS(g-h-1)= 2.662E-05  nbox= 10
     iter. #   161  RMS(g-h-1)= 2.632E-05  nbox=  4
     iter. #   171  RMS(g-h-1)= 2.575E-05  nbox= 14
     iter. #   181  RMS(g-h-1)= 2.400E-05  nbox=  8
     iter. #   191  RMS(g-h-1)= 2.248E-05  nbox=  2
     iter. #   201  RMS(g-h-1)= 2.115E-05  nbox= 12
     iter. #   211  RMS(g-h-1)= 1.970E-05  nbox=  6
     iter. #   221  RMS(g-h-1)= 1.788E-05  nbox= 16
     iter. #   231  RMS(g-h-1)= 1.652E-05  nbox= 10
     iter. #   241  RMS(g-h-1)= 1.594E-05  nbox=  4
     iter. #   251  RMS(g-h-1)= 1.557E-05  nbox= 14
     iter. #   261  RMS(g-h-1)= 1.523E-05  nbox=  8
     iter. #   271  RMS(g-h-1)= 1.505E-05  nbox=  2
     iter. #   281  RMS(g-h-1)= 1.483E-05  nbox= 12
     iter. #   291  RMS(g-h-1)= 1.445E-05  nbox=  6
     iter. #   301  RMS(g-h-1)= 1.394E-05  nbox= 16
     iter. #   311  RMS(g-h-1)= 1.356E-05  nbox= 10
     iter. #   321  RMS(g-h-1)= 1.319E-05  nbox=  4
     iter. #   331  RMS(g-h-1)= 1.234E-05  nbox= 14
     iter. #   341  RMS(g-h-1)= 1.181E-05  nbox=  8
     iter. #   351  RMS(g-h-1)= 1.142E-05  nbox=  2
     iter. #   361  RMS(g-h-1)= 1.090E-05  nbox= 12
     iter. #   371  RMS(g-h-1)= 1.060E-05  nbox=  6
     iter. #   378  RMS(g-h-1)= 1.031E-05  nbox= 13

     End of Laue-RISM calculation


     convergence has been achieved in   378 iterations


     solvent charge   -0.00144, renormalised to   -0.00000

     Total number of solvent (in expand-cell)
     H2O           32.734587
     K+             0.642856
     OH-            0.643303

     Total charge of solvent (in expand-cell)
     H2O           -0.000014 e
     K+             0.642856 e
     OH-           -0.644283 e
     Total         -0.001441 e

     Chemical potential of solvation (in expand-cell)
     H2O        GaussFluct   0.530491E+01 kcal/mol
     K+         GaussFluct   0.527852E+00 kcal/mol
     OH-        GaussFluct  -0.240473E+00 kcal/mol
     Total      GaussFluct   0.559229E+01 kcal/mol


     total cpu time spent up to now is      373.0 secs

     total energy              =   -4845.04637481 Ry
     estimated scf accuracy    <       0.07681761 Ry

     iteration #  8     ecut=    40.00 Ry     beta= 0.10
     Davidson diagonalization with overlap
     c_bands:  2 eigenvalues not converged
     c_bands:  3 eigenvalues not converged
     c_bands:  2 eigenvalues not converged
     ethr =  3.37E-05,  avg # of iterations = 15.0

     negative rho (up, down):  1.561E-03 0.000E+00

     Laue-RISM Calculation

     convergence threshold    = 1.585E-05
     iter. #     1  RMS(g-h-1)= 6.051E-03  nbox=  0
     iter. #    11  RMS(g-h-1)= 1.068E-03  nbox= 10
     iter. #    21  RMS(g-h-1)= 4.460E-04  nbox= 20
     iter. #    31  RMS(g-h-1)= 2.745E-04  nbox= 20
     iter. #    41  RMS(g-h-1)= 2.334E-04  nbox= 20
     iter. #    51  RMS(g-h-1)= 2.074E-04  nbox= 20
     iter. #    61  RMS(g-h-1)= 1.595E-04  nbox= 20
     iter. #    71  RMS(g-h-1)= 1.450E-04  nbox= 20
     iter. #    81  RMS(g-h-1)= 1.080E-04  nbox= 20
     iter. #    91  RMS(g-h-1)= 8.971E-05  nbox= 20
     iter. #   101  RMS(g-h-1)= 7.698E-05  nbox= 20
     iter. #   111  RMS(g-h-1)= 6.451E-05  nbox= 20
     iter. #   121  RMS(g-h-1)= 6.029E-05  nbox=  3
     iter. #   131  RMS(g-h-1)= 5.271E-05  nbox= 13
     iter. #   141  RMS(g-h-1)= 4.107E-05  nbox=  7
     iter. #   151  RMS(g-h-1)= 2.962E-05  nbox= 17
     iter. #   161  RMS(g-h-1)= 2.627E-05  nbox= 20
     iter. #   171  RMS(g-h-1)= 2.409E-05  nbox=  9
     iter. #   181  RMS(g-h-1)= 2.164E-05  nbox=  3
     iter. #   191  RMS(g-h-1)= 1.992E-05  nbox= 13
     iter. #   201  RMS(g-h-1)= 1.769E-05  nbox=  7
     iter. #   211  RMS(g-h-1)= 1.577E-05  nbox= 17

     End of Laue-RISM calculation


     convergence has been achieved in   211 iterations


     solvent charge   -0.00257, renormalised to   -0.00000

     Total number of solvent (in expand-cell)
     H2O           32.736003
     K+             0.642758
     OH-            0.643112

     Total charge of solvent (in expand-cell)
     H2O           -0.000054 e
     K+             0.642758 e
     OH-           -0.645270 e
     Total         -0.002566 e

     Chemical potential of solvation (in expand-cell)
     H2O        GaussFluct   0.530569E+01 kcal/mol
     K+         GaussFluct   0.645158E-01 kcal/mol
     OH-        GaussFluct   0.217904E+00 kcal/mol
     Total      GaussFluct   0.558811E+01 kcal/mol


     total cpu time spent up to now is      390.9 secs

     total energy              =   -4845.09190437 Ry
     estimated scf accuracy    <       0.30236252 Ry

     iteration #  9     ecut=    40.00 Ry     beta= 0.10
     Davidson diagonalization with overlap
     c_bands:  3 eigenvalues not converged
     ethr =  3.37E-05,  avg # of iterations =  6.9

     negative rho (up, down):  3.883E-03 0.000E+00

     Laue-RISM Calculation

     convergence threshold    = 1.516E-05
     iter. #     1  RMS(g-h-1)= 1.110E-02  nbox=  0
     iter. #    11  RMS(g-h-1)= 1.902E-03  nbox= 10
     iter. #    21  RMS(g-h-1)= 9.080E-04  nbox= 20
     iter. #    31  RMS(g-h-1)= 5.183E-04  nbox= 20
     iter. #    41  RMS(g-h-1)= 4.591E-04  nbox= 20
     iter. #    51  RMS(g-h-1)= 3.797E-04  nbox= 20
     iter. #    61  RMS(g-h-1)= 2.953E-04  nbox= 20
     iter. #    71  RMS(g-h-1)= 2.634E-04  nbox= 20
     iter. #    81  RMS(g-h-1)= 2.279E-04  nbox= 10
     iter. #    91  RMS(g-h-1)= 1.784E-04  nbox=  4
     iter. #   101  RMS(g-h-1)= 1.484E-04  nbox= 14
     iter. #   111  RMS(g-h-1)= 1.190E-04  nbox=  6
     iter. #   121  RMS(g-h-1)= 1.073E-04  nbox= 16
     iter. #   131  RMS(g-h-1)= 9.908E-05  nbox= 10
     iter. #   141  RMS(g-h-1)= 9.230E-05  nbox=  4
     iter. #   151  RMS(g-h-1)= 8.571E-05  nbox= 14
     iter. #   161  RMS(g-h-1)= 7.932E-05  nbox=  8
     iter. #   171  RMS(g-h-1)= 7.262E-05  nbox=  2
     iter. #   181  RMS(g-h-1)= 6.371E-05  nbox= 12
     iter. #   191  RMS(g-h-1)= 6.022E-05  nbox=  6
     iter. #   201  RMS(g-h-1)= 5.729E-05  nbox= 16
     iter. #   211  RMS(g-h-1)= 5.536E-05  nbox= 10
     iter. #   221  RMS(g-h-1)= 5.347E-05  nbox=  4
     iter. #   231  RMS(g-h-1)= 5.189E-05  nbox= 14
     iter. #   241  RMS(g-h-1)= 4.932E-05  nbox=  8
     iter. #   251  RMS(g-h-1)= 4.726E-05  nbox=  2
     iter. #   261  RMS(g-h-1)= 4.560E-05  nbox= 12
     iter. #   271  RMS(g-h-1)= 4.342E-05  nbox=  6
     iter. #   281  RMS(g-h-1)= 4.083E-05  nbox= 16
     iter. #   291  RMS(g-h-1)= 3.834E-05  nbox= 10
     iter. #   301  RMS(g-h-1)= 3.658E-05  nbox=  4
     iter. #   311  RMS(g-h-1)= 3.504E-05  nbox= 14
     iter. #   321  RMS(g-h-1)= 3.379E-05  nbox=  8
     iter. #   331  RMS(g-h-1)= 3.232E-05  nbox=  2
     iter. #   341  RMS(g-h-1)= 3.003E-05  nbox= 12
     iter. #   351  RMS(g-h-1)= 2.760E-05  nbox=  6
     iter. #   361  RMS(g-h-1)= 2.633E-05  nbox= 16
     iter. #   371  RMS(g-h-1)= 2.582E-05  nbox= 10
     iter. #   381  RMS(g-h-1)= 2.545E-05  nbox=  4
     iter. #   391  RMS(g-h-1)= 2.534E-05  nbox= 14
     iter. #   401  RMS(g-h-1)= 2.501E-05  nbox=  8
     iter. #   411  RMS(g-h-1)= 2.436E-05  nbox=  2
     iter. #   421  RMS(g-h-1)= 2.277E-05  nbox= 12
     iter. #   431  RMS(g-h-1)= 2.088E-05  nbox=  6
     iter. #   441  RMS(g-h-1)= 1.969E-05  nbox= 16
     iter. #   451  RMS(g-h-1)= 1.828E-05  nbox= 10
     iter. #   461  RMS(g-h-1)= 1.681E-05  nbox=  4
     iter. #   471  RMS(g-h-1)= 1.563E-05  nbox= 14
     iter. #   476  RMS(g-h-1)= 1.500E-05  nbox=  3

     End of Laue-RISM calculation


     convergence has been achieved in   476 iterations


     solvent charge   -0.00094, renormalised to   -0.00000

     Total number of solvent (in expand-cell)
     H2O           32.739688
     K+             0.642484
     OH-            0.642833

     Total charge of solvent (in expand-cell)
     H2O           -0.000218 e
     K+             0.642484 e
     OH-           -0.643202 e
     Total         -0.000936 e

     Chemical potential of solvation (in expand-cell)
     H2O        GaussFluct   0.529920E+01 kcal/mol
     K+         GaussFluct  -0.112168E+00 kcal/mol
     OH-        GaussFluct   0.379513E+00 kcal/mol
     Total      GaussFluct   0.556655E+01 kcal/mol


     total cpu time spent up to now is      420.3 secs

     total energy              =   -4845.05297447 Ry
     estimated scf accuracy    <       0.13225230 Ry

     iteration # 10     ecut=    40.00 Ry     beta= 0.10
     Davidson diagonalization with overlap
     c_bands:  4 eigenvalues not converged
     c_bands:  3 eigenvalues not converged
     ethr =  3.37E-05,  avg # of iterations =  9.8

     negative rho (up, down):  2.646E-03 0.000E+00

     Laue-RISM Calculation

     convergence threshold    = 1.892E-06
     iter. #     1  RMS(g-h-1)= 7.549E-03  nbox=  0
     iter. #    11  RMS(g-h-1)= 7.858E-04  nbox= 10
     iter. #    21  RMS(g-h-1)= 4.365E-04  nbox= 20
     iter. #    31  RMS(g-h-1)= 2.656E-04  nbox= 20
     iter. #    41  RMS(g-h-1)= 2.175E-04  nbox= 20
     iter. #    51  RMS(g-h-1)= 2.009E-04  nbox= 20
     iter. #    61  RMS(g-h-1)= 1.751E-04  nbox=  8
     iter. #    71  RMS(g-h-1)= 1.551E-04  nbox=  2
     iter. #    81  RMS(g-h-1)= 1.149E-04  nbox= 12
     iter. #    91  RMS(g-h-1)= 1.017E-04  nbox= 20
     iter. #   101  RMS(g-h-1)= 9.688E-05  nbox=  5
     iter. #   111  RMS(g-h-1)= 9.573E-05  nbox= 15
     iter. #   121  RMS(g-h-1)= 8.683E-05  nbox=  9
     iter. #   131  RMS(g-h-1)= 8.121E-05  nbox=  3
     iter. #   141  RMS(g-h-1)= 7.698E-05  nbox= 13
     iter. #   151  RMS(g-h-1)= 6.991E-05  nbox=  7
     iter. #   161  RMS(g-h-1)= 6.285E-05  nbox= 17
     iter. #   171  RMS(g-h-1)= 5.849E-05  nbox= 11
     iter. #   181  RMS(g-h-1)= 5.522E-05  nbox=  5
     iter. #   191  RMS(g-h-1)= 5.276E-05  nbox= 15
     iter. #   201  RMS(g-h-1)= 5.049E-05  nbox=  9
     iter. #   211  RMS(g-h-1)= 4.697E-05  nbox=  3
     iter. #   221  RMS(g-h-1)= 4.581E-05  nbox= 13
     iter. #   231  RMS(g-h-1)= 4.426E-05  nbox=  7
     iter. #   241  RMS(g-h-1)= 4.130E-05  nbox= 17
     iter. #   251  RMS(g-h-1)= 3.997E-05  nbox= 11
     iter. #   261  RMS(g-h-1)= 3.619E-05  nbox=  5
     iter. #   271  RMS(g-h-1)= 3.211E-05  nbox= 15
     iter. #   281  RMS(g-h-1)= 2.880E-05  nbox=  9
     iter. #   291  RMS(g-h-1)= 2.731E-05  nbox=  3
     iter. #   301  RMS(g-h-1)= 2.473E-05  nbox= 13
     iter. #   311  RMS(g-h-1)= 2.311E-05  nbox=  7
     iter. #   321  RMS(g-h-1)= 2.229E-05  nbox= 17
     iter. #   331  RMS(g-h-1)= 2.191E-05  nbox= 11
     iter. #   341  RMS(g-h-1)= 2.129E-05  nbox=  5
     iter. #   351  RMS(g-h-1)= 2.074E-05  nbox= 15
     iter. #   361  RMS(g-h-1)= 2.005E-05  nbox=  9
     iter. #   371  RMS(g-h-1)= 1.941E-05  nbox=  3
     iter. #   381  RMS(g-h-1)= 1.914E-05  nbox= 13
     iter. #   391  RMS(g-h-1)= 1.869E-05  nbox=  7
     iter. #   401  RMS(g-h-1)= 1.870E-05  nbox= 17
     iter. #   411  RMS(g-h-1)= 1.846E-05  nbox= 11
     iter. #   421  RMS(g-h-1)= 1.769E-05  nbox=  5
     iter. #   431  RMS(g-h-1)= 1.694E-05  nbox= 15
     iter. #   441  RMS(g-h-1)= 1.662E-05  nbox=  9
     iter. #   451  RMS(g-h-1)= 1.567E-05  nbox=  3
     iter. #   461  RMS(g-h-1)= 1.469E-05  nbox= 13
     iter. #   471  RMS(g-h-1)= 1.387E-05  nbox=  7
     iter. #   481  RMS(g-h-1)= 1.315E-05  nbox= 17
     iter. #   491  RMS(g-h-1)= 1.248E-05  nbox= 11
     iter. #   501  RMS(g-h-1)= 1.165E-05  nbox=  5
     iter. #   511  RMS(g-h-1)= 1.099E-05  nbox= 15
     iter. #   521  RMS(g-h-1)= 1.022E-05  nbox=  9
     iter. #   531  RMS(g-h-1)= 9.636E-06  nbox=  3
     iter. #   541  RMS(g-h-1)= 9.116E-06  nbox= 13
     iter. #   551  RMS(g-h-1)= 8.593E-06  nbox=  7
     iter. #   561  RMS(g-h-1)= 8.065E-06  nbox= 17
     iter. #   571  RMS(g-h-1)= 7.724E-06  nbox= 11
     iter. #   581  RMS(g-h-1)= 7.520E-06  nbox=  5
     iter. #   591  RMS(g-h-1)= 7.328E-06  nbox= 15
     iter. #   601  RMS(g-h-1)= 7.171E-06  nbox=  9
     iter. #   611  RMS(g-h-1)= 7.096E-06  nbox=  3
     iter. #   621  RMS(g-h-1)= 6.999E-06  nbox= 13
     iter. #   631  RMS(g-h-1)= 6.849E-06  nbox=  7
     iter. #   641  RMS(g-h-1)= 6.660E-06  nbox= 17
     iter. #   651  RMS(g-h-1)= 6.495E-06  nbox= 11
     iter. #   661  RMS(g-h-1)= 6.266E-06  nbox=  5
     iter. #   671  RMS(g-h-1)= 5.987E-06  nbox= 15
     iter. #   681  RMS(g-h-1)= 5.792E-06  nbox=  9
     iter. #   691  RMS(g-h-1)= 5.530E-06  nbox=  3
     iter. #   701  RMS(g-h-1)= 5.351E-06  nbox= 13
     iter. #   711  RMS(g-h-1)= 5.193E-06  nbox=  7
     iter. #   721  RMS(g-h-1)= 4.941E-06  nbox= 17
     iter. #   731  RMS(g-h-1)= 4.634E-06  nbox= 11
     iter. #   741  RMS(g-h-1)= 4.336E-06  nbox=  5
     iter. #   751  RMS(g-h-1)= 4.058E-06  nbox= 15
     iter. #   761  RMS(g-h-1)= 3.845E-06  nbox=  9
     iter. #   771  RMS(g-h-1)= 3.701E-06  nbox=  3
     iter. #   781  RMS(g-h-1)= 3.601E-06  nbox= 13
     iter. #   791  RMS(g-h-1)= 3.579E-06  nbox=  7
     iter. #   801  RMS(g-h-1)= 3.603E-06  nbox= 17
     iter. #   811  RMS(g-h-1)= 3.542E-06  nbox= 11
     iter. #   821  RMS(g-h-1)= 3.522E-06  nbox=  5
     iter. #   831  RMS(g-h-1)= 3.513E-06  nbox= 15
     iter. #   841  RMS(g-h-1)= 3.504E-06  nbox=  9
     iter. #   851  RMS(g-h-1)= 3.502E-06  nbox=  3
     iter. #   861  RMS(g-h-1)= 3.501E-06  nbox= 13
     iter. #   871  RMS(g-h-1)= 3.500E-06  nbox=  7
     iter. #   881  RMS(g-h-1)= 3.500E-06  nbox= 17
     iter. #   891  RMS(g-h-1)= 3.499E-06  nbox= 11
     iter. #   901  RMS(g-h-1)= 3.498E-06  nbox=  5
     iter. #   911  RMS(g-h-1)= 3.738E-06  nbox= 15
     iter. #   921  RMS(g-h-1)= 3.497E-06  nbox=  9
     iter. #   931  RMS(g-h-1)= 3.497E-06  nbox=  3
     iter. #   941  RMS(g-h-1)= 3.495E-06  nbox= 13
     iter. #   951  RMS(g-h-1)= 3.493E-06  nbox=  7
     iter. #   961  RMS(g-h-1)= 3.491E-06  nbox= 17
     iter. #   971  RMS(g-h-1)= 3.484E-06  nbox= 11
     iter. #   981  RMS(g-h-1)= 3.477E-06  nbox=  5
     iter. #   991  RMS(g-h-1)= 3.467E-06  nbox= 15
     iter. #  1001  RMS(g-h-1)= 3.455E-06  nbox=  9
     iter. #  1011  RMS(g-h-1)= 3.452E-06  nbox=  3
     iter. #  1021  RMS(g-h-1)= 3.452E-06  nbox= 13
     iter. #  1031  RMS(g-h-1)= 3.447E-06  nbox=  7
     iter. #  1041  RMS(g-h-1)= 3.446E-06  nbox= 17
     iter. #  1051  RMS(g-h-1)= 3.446E-06  nbox= 11
     iter. #  1061  RMS(g-h-1)= 3.446E-06  nbox=  5
     iter. #  1071  RMS(g-h-1)= 3.446E-06  nbox= 15
     iter. #  1081  RMS(g-h-1)= 3.446E-06  nbox=  9
     iter. #  1091  RMS(g-h-1)= 3.446E-06  nbox=  3
     iter. #  1101  RMS(g-h-1)= 3.446E-06  nbox= 13
     iter. #  1111  RMS(g-h-1)= 3.444E-06  nbox=  7
     iter. #  1121  RMS(g-h-1)= 3.442E-06  nbox= 17
     iter. #  1131  RMS(g-h-1)= 3.441E-06  nbox= 11
     iter. #  1141  RMS(g-h-1)= 3.440E-06  nbox=  5
     iter. #  1151  RMS(g-h-1)= 3.440E-06  nbox= 15
     iter. #  1161  RMS(g-h-1)= 3.439E-06  nbox=  9
     iter. #  1171  RMS(g-h-1)= 3.438E-06  nbox=  3
     iter. #  1181  RMS(g-h-1)= 3.439E-06  nbox= 13
     iter. #  1191  RMS(g-h-1)= 3.436E-06  nbox=  7
     iter. #  1201  RMS(g-h-1)= 3.435E-06  nbox= 17
     iter. #  1211  RMS(g-h-1)= 3.433E-06  nbox= 11
     iter. #  1221  RMS(g-h-1)= 3.432E-06  nbox=  5
     iter. #  1231  RMS(g-h-1)= 3.428E-06  nbox= 15
     iter. #  1241  RMS(g-h-1)= 3.416E-06  nbox=  9
     iter. #  1251  RMS(g-h-1)= 3.355E-06  nbox=  3
     iter. #  1261  RMS(g-h-1)= 3.239E-06  nbox= 13
     iter. #  1271  RMS(g-h-1)= 3.144E-06  nbox=  7
     iter. #  1281  RMS(g-h-1)= 3.048E-06  nbox= 17
     iter. #  1291  RMS(g-h-1)= 2.962E-06  nbox= 11
     iter. #  1301  RMS(g-h-1)= 2.886E-06  nbox=  5
     iter. #  1311  RMS(g-h-1)= 2.848E-06  nbox= 15
     iter. #  1321  RMS(g-h-1)= 2.819E-06  nbox=  9
     iter. #  1331  RMS(g-h-1)= 2.800E-06  nbox=  3
     iter. #  1341  RMS(g-h-1)= 2.778E-06  nbox= 13
     iter. #  1351  RMS(g-h-1)= 2.762E-06  nbox=  7
     iter. #  1361  RMS(g-h-1)= 2.751E-06  nbox= 17
     iter. #  1371  RMS(g-h-1)= 2.736E-06  nbox=  6
     iter. #  1381  RMS(g-h-1)= 2.715E-06  nbox= 16
     iter. #  1391  RMS(g-h-1)= 2.701E-06  nbox=  8
     iter. #  1401  RMS(g-h-1)= 2.697E-06  nbox=  2
     iter. #  1411  RMS(g-h-1)= 2.690E-06  nbox= 12
     iter. #  1421  RMS(g-h-1)= 2.685E-06  nbox=  6
     iter. #  1431  RMS(g-h-1)= 2.684E-06  nbox= 16
     iter. #  1441  RMS(g-h-1)= 2.685E-06  nbox= 10
     iter. #  1451  RMS(g-h-1)= 2.682E-06  nbox=  4
     iter. #  1461  RMS(g-h-1)= 2.681E-06  nbox= 14
     iter. #  1471  RMS(g-h-1)= 2.681E-06  nbox=  8
     iter. #  1481  RMS(g-h-1)= 2.681E-06  nbox=  2
     iter. #  1491  RMS(g-h-1)= 2.680E-06  nbox= 12
     iter. #  1501  RMS(g-h-1)= 2.680E-06  nbox=  6
     iter. #  1511  RMS(g-h-1)= 2.681E-06  nbox= 16
     iter. #  1521  RMS(g-h-1)= 2.679E-06  nbox= 10
     iter. #  1531  RMS(g-h-1)= 2.678E-06  nbox=  4
     iter. #  1541  RMS(g-h-1)= 2.678E-06  nbox= 14
     iter. #  1551  RMS(g-h-1)= 2.679E-06  nbox=  8
     iter. #  1561  RMS(g-h-1)= 2.678E-06  nbox=  2
     iter. #  1571  RMS(g-h-1)= 2.678E-06  nbox= 12
     iter. #  1581  RMS(g-h-1)= 2.678E-06  nbox=  6
     iter. #  1591  RMS(g-h-1)= 2.678E-06  nbox= 16
     iter. #  1601  RMS(g-h-1)= 2.677E-06  nbox= 10
     iter. #  1611  RMS(g-h-1)= 2.677E-06  nbox=  4
     iter. #  1621  RMS(g-h-1)= 2.678E-06  nbox= 14
     iter. #  1631  RMS(g-h-1)= 2.677E-06  nbox=  8
     iter. #  1641  RMS(g-h-1)= 2.690E-06  nbox=  2
     iter. #  1651  RMS(g-h-1)= 2.676E-06  nbox= 12
     iter. #  1661  RMS(g-h-1)= 2.675E-06  nbox=  6
     iter. #  1671  RMS(g-h-1)= 2.675E-06  nbox= 16
     iter. #  1681  RMS(g-h-1)= 2.675E-06  nbox= 10
     iter. #  1691  RMS(g-h-1)= 2.675E-06  nbox=  4
     iter. #  1701  RMS(g-h-1)= 2.675E-06  nbox= 14
     iter. #  1711  RMS(g-h-1)= 2.675E-06  nbox=  8
     iter. #  1721  RMS(g-h-1)= 2.678E-06  nbox=  2
     iter. #  1731  RMS(g-h-1)= 2.675E-06  nbox= 12
     iter. #  1741  RMS(g-h-1)= 2.755E-06  nbox=  6
     iter. #  1751  RMS(g-h-1)= 2.679E-06  nbox= 16
     iter. #  1761  RMS(g-h-1)= 2.675E-06  nbox= 10
     iter. #  1771  RMS(g-h-1)= 2.675E-06  nbox=  4
     iter. #  1781  RMS(g-h-1)= 2.675E-06  nbox= 14
     iter. #  1791  RMS(g-h-1)= 2.674E-06  nbox=  8
     iter. #  1801  RMS(g-h-1)= 2.674E-06  nbox=  2
     iter. #  1811  RMS(g-h-1)= 2.675E-06  nbox= 12
     iter. #  1821  RMS(g-h-1)= 2.674E-06  nbox=  6
     iter. #  1831  RMS(g-h-1)= 2.674E-06  nbox= 16
     iter. #  1841  RMS(g-h-1)= 2.674E-06  nbox= 10
     iter. #  1851  RMS(g-h-1)= 2.674E-06  nbox=  4
     iter. #  1861  RMS(g-h-1)= 2.674E-06  nbox= 14
     iter. #  1871  RMS(g-h-1)= 2.674E-06  nbox=  8
     iter. #  1881  RMS(g-h-1)= 2.674E-06  nbox=  2
     iter. #  1891  RMS(g-h-1)= 2.675E-06  nbox= 12
     iter. #  1901  RMS(g-h-1)= 2.674E-06  nbox=  6
     iter. #  1911  RMS(g-h-1)= 2.674E-06  nbox= 16
     iter. #  1921  RMS(g-h-1)= 2.674E-06  nbox= 10
     iter. #  1931  RMS(g-h-1)= 2.674E-06  nbox=  4
     iter. #  1941  RMS(g-h-1)= 2.674E-06  nbox= 14
     iter. #  1951  RMS(g-h-1)= 2.674E-06  nbox=  8
     iter. #  1961  RMS(g-h-1)= 2.672E-06  nbox=  2
     iter. #  1971  RMS(g-h-1)= 2.669E-06  nbox= 12
     iter. #  1981  RMS(g-h-1)= 2.673E-06  nbox=  6
     iter. #  1991  RMS(g-h-1)= 2.667E-06  nbox=  4
     iter. #  2001  RMS(g-h-1)= 2.667E-06  nbox= 14
     iter. #  2011  RMS(g-h-1)= 2.666E-06  nbox=  6
     iter. #  2021  RMS(g-h-1)= 2.666E-06  nbox= 16
     iter. #  2031  RMS(g-h-1)= 2.665E-06  nbox= 10
     iter. #  2041  RMS(g-h-1)= 2.664E-06  nbox=  4
     iter. #  2051  RMS(g-h-1)= 2.664E-06  nbox= 14
     iter. #  2061  RMS(g-h-1)= 2.664E-06  nbox=  8
     iter. #  2071  RMS(g-h-1)= 2.664E-06  nbox=  2
     iter. #  2081  RMS(g-h-1)= 2.665E-06  nbox= 12
     iter. #  2091  RMS(g-h-1)= 2.664E-06  nbox=  6
     iter. #  2101  RMS(g-h-1)= 2.663E-06  nbox= 16
     iter. #  2111  RMS(g-h-1)= 2.665E-06  nbox= 10
     iter. #  2121  RMS(g-h-1)= 2.663E-06  nbox=  4
     iter. #  2131  RMS(g-h-1)= 2.662E-06  nbox= 14
     iter. #  2141  RMS(g-h-1)= 2.662E-06  nbox=  8
     iter. #  2151  RMS(g-h-1)= 2.662E-06  nbox=  2
     iter. #  2161  RMS(g-h-1)= 2.662E-06  nbox= 12
     iter. #  2171  RMS(g-h-1)= 2.662E-06  nbox=  6
     iter. #  2181  RMS(g-h-1)= 2.661E-06  nbox= 16
     iter. #  2191  RMS(g-h-1)= 2.661E-06  nbox= 10
     iter. #  2201  RMS(g-h-1)= 2.661E-06  nbox=  4
     iter. #  2211  RMS(g-h-1)= 2.661E-06  nbox= 14
     iter. #  2221  RMS(g-h-1)= 2.661E-06  nbox=  8
     iter. #  2231  RMS(g-h-1)= 2.661E-06  nbox=  2
     iter. #  2241  RMS(g-h-1)= 2.661E-06  nbox= 12
     iter. #  2251  RMS(g-h-1)= 2.661E-06  nbox=  6
     iter. #  2261  RMS(g-h-1)= 2.661E-06  nbox= 16
     iter. #  2271  RMS(g-h-1)= 2.661E-06  nbox= 10
     iter. #  2281  RMS(g-h-1)= 2.661E-06  nbox=  4
     iter. #  2291  RMS(g-h-1)= 2.660E-06  nbox= 14
     iter. #  2301  RMS(g-h-1)= 2.660E-06  nbox=  8
     iter. #  2311  RMS(g-h-1)= 2.663E-06  nbox=  2
     iter. #  2321  RMS(g-h-1)= 2.660E-06  nbox= 12
     iter. #  2331  RMS(g-h-1)= 2.660E-06  nbox=  6
     iter. #  2341  RMS(g-h-1)= 2.660E-06  nbox= 16
     iter. #  2351  RMS(g-h-1)= 2.661E-06  nbox= 10
     iter. #  2361  RMS(g-h-1)= 2.660E-06  nbox=  4
     iter. #  2371  RMS(g-h-1)= 2.661E-06  nbox= 14
     iter. #  2381  RMS(g-h-1)= 2.660E-06  nbox=  8
     iter. #  2391  RMS(g-h-1)= 2.660E-06  nbox=  2
     iter. #  2401  RMS(g-h-1)= 2.660E-06  nbox= 12
     iter. #  2411  RMS(g-h-1)= 2.656E-06  nbox=  6
     iter. #  2421  RMS(g-h-1)= 2.655E-06  nbox= 16
     iter. #  2431  RMS(g-h-1)= 2.645E-06  nbox= 10
     iter. #  2441  RMS(g-h-1)= 2.643E-06  nbox=  4
     iter. #  2451  RMS(g-h-1)= 2.642E-06  nbox= 14
     iter. #  2461  RMS(g-h-1)= 2.641E-06  nbox=  8
     iter. #  2471  RMS(g-h-1)= 2.688E-06  nbox=  2
     iter. #  2481  RMS(g-h-1)= 2.638E-06  nbox= 12
     iter. #  2491  RMS(g-h-1)= 2.638E-06  nbox=  6
     iter. #  2501  RMS(g-h-1)= 2.637E-06  nbox= 16
     iter. #  2511  RMS(g-h-1)= 2.637E-06  nbox= 10
     iter. #  2521  RMS(g-h-1)= 2.637E-06  nbox=  4
     iter. #  2531  RMS(g-h-1)= 2.636E-06  nbox= 14
     iter. #  2541  RMS(g-h-1)= 2.636E-06  nbox=  8
     iter. #  2551  RMS(g-h-1)= 2.636E-06  nbox=  2
     iter. #  2561  RMS(g-h-1)= 2.636E-06  nbox= 12
     iter. #  2571  RMS(g-h-1)= 2.636E-06  nbox=  6
     iter. #  2581  RMS(g-h-1)= 2.636E-06  nbox= 16
     iter. #  2591  RMS(g-h-1)= 2.636E-06  nbox= 10
     iter. #  2601  RMS(g-h-1)= 2.636E-06  nbox=  4
     iter. #  2611  RMS(g-h-1)= 2.636E-06  nbox= 14
     iter. #  2621  RMS(g-h-1)= 2.636E-06  nbox=  8
     iter. #  2631  RMS(g-h-1)= 2.636E-06  nbox=  2
     iter. #  2641  RMS(g-h-1)= 2.635E-06  nbox= 12
     iter. #  2651  RMS(g-h-1)= 2.634E-06  nbox=  6
     iter. #  2661  RMS(g-h-1)= 2.633E-06  nbox= 16
     iter. #  2671  RMS(g-h-1)= 2.632E-06  nbox= 10
     iter. #  2681  RMS(g-h-1)= 2.632E-06  nbox=  4
     iter. #  2691  RMS(g-h-1)= 2.632E-06  nbox= 14
     iter. #  2701  RMS(g-h-1)= 2.632E-06  nbox=  8
     iter. #  2711  RMS(g-h-1)= 2.638E-06  nbox=  2
     iter. #  2721  RMS(g-h-1)= 2.630E-06  nbox= 12
     iter. #  2731  RMS(g-h-1)= 2.629E-06  nbox=  6
     iter. #  2741  RMS(g-h-1)= 2.628E-06  nbox= 16
     iter. #  2751  RMS(g-h-1)= 2.627E-06  nbox= 10
     iter. #  2761  RMS(g-h-1)= 2.627E-06  nbox=  4
     iter. #  2771  RMS(g-h-1)= 2.627E-06  nbox= 14
     iter. #  2781  RMS(g-h-1)= 2.627E-06  nbox=  8
     iter. #  2791  RMS(g-h-1)= 2.626E-06  nbox=  2
     iter. #  2801  RMS(g-h-1)= 2.627E-06  nbox= 12
     iter. #  2811  RMS(g-h-1)= 2.626E-06  nbox=  6
     iter. #  2821  RMS(g-h-1)= 2.626E-06  nbox= 16
     iter. #  2831  RMS(g-h-1)= 2.544E-05  nbox= 10
     iter. #  2841  RMS(g-h-1)= 2.626E-06  nbox= 11
     iter. #  2851  RMS(g-h-1)= 2.625E-06  nbox=  3
     iter. #  2861  RMS(g-h-1)= 2.625E-06  nbox= 13
     iter. #  2871  RMS(g-h-1)= 2.625E-06  nbox=  7
     iter. #  2881  RMS(g-h-1)= 2.624E-06  nbox= 17
     iter. #  2891  RMS(g-h-1)= 2.624E-06  nbox= 11
     iter. #  2901  RMS(g-h-1)= 2.624E-06  nbox=  5
     iter. #  2911  RMS(g-h-1)= 2.624E-06  nbox= 15
     iter. #  2921  RMS(g-h-1)= 2.623E-06  nbox=  9
     iter. #  2931  RMS(g-h-1)= 2.623E-06  nbox=  3
     iter. #  2941  RMS(g-h-1)= 2.623E-06  nbox= 13
     iter. #  2951  RMS(g-h-1)= 2.623E-06  nbox=  7
     iter. #  2961  RMS(g-h-1)= 2.623E-06  nbox= 17
     iter. #  2971  RMS(g-h-1)= 2.623E-06  nbox= 11
     iter. #  2981  RMS(g-h-1)= 2.622E-06  nbox=  5
     iter. #  2991  RMS(g-h-1)= 2.622E-06  nbox= 15
     iter. #  3001  RMS(g-h-1)= 2.622E-06  nbox=  9
     iter. #  3011  RMS(g-h-1)= 2.622E-06  nbox=  3
     iter. #  3021  RMS(g-h-1)= 2.622E-06  nbox= 13
     iter. #  3031  RMS(g-h-1)= 2.622E-06  nbox=  7
     iter. #  3041  RMS(g-h-1)= 2.622E-06  nbox= 17
     iter. #  3051  RMS(g-h-1)= 2.622E-06  nbox= 11
     iter. #  3061  RMS(g-h-1)= 2.622E-06  nbox=  5
     iter. #  3071  RMS(g-h-1)= 2.622E-06  nbox= 15
     iter. #  3081  RMS(g-h-1)= 2.622E-06  nbox=  9
     iter. #  3091  RMS(g-h-1)= 2.622E-06  nbox=  3
     iter. #  3101  RMS(g-h-1)= 2.621E-06  nbox= 13
     iter. #  3111  RMS(g-h-1)= 2.621E-06  nbox=  7
     iter. #  3121  RMS(g-h-1)= 2.621E-06  nbox= 17
     iter. #  3131  RMS(g-h-1)= 2.621E-06  nbox= 11
     iter. #  3141  RMS(g-h-1)= 2.621E-06  nbox=  5
     iter. #  3151  RMS(g-h-1)= 2.621E-06  nbox= 15
     iter. #  3161  RMS(g-h-1)= 2.621E-06  nbox=  9
     iter. #  3171  RMS(g-h-1)= 2.621E-06  nbox=  3
     iter. #  3181  RMS(g-h-1)= 2.620E-06  nbox= 13
     iter. #  3191  RMS(g-h-1)= 2.622E-06  nbox=  7
     iter. #  3201  RMS(g-h-1)= 2.622E-06  nbox= 17
     iter. #  3211  RMS(g-h-1)= 2.620E-06  nbox= 11
     iter. #  3221  RMS(g-h-1)= 2.620E-06  nbox=  5
     iter. #  3231  RMS(g-h-1)= 2.620E-06  nbox= 15
     iter. #  3241  RMS(g-h-1)= 2.620E-06  nbox=  9
     iter. #  3251  RMS(g-h-1)= 2.620E-06  nbox=  3
     iter. #  3261  RMS(g-h-1)= 2.620E-06  nbox= 13
     iter. #  3271  RMS(g-h-1)= 2.620E-06  nbox=  7
     iter. #  3281  RMS(g-h-1)= 2.620E-06  nbox= 17
     iter. #  3291  RMS(g-h-1)= 2.620E-06  nbox= 11
     iter. #  3301  RMS(g-h-1)= 2.620E-06  nbox=  5
     iter. #  3311  RMS(g-h-1)= 2.620E-06  nbox= 15
     iter. #  3321  RMS(g-h-1)= 2.620E-06  nbox=  9
     iter. #  3331  RMS(g-h-1)= 2.620E-06  nbox=  3
     iter. #  3341  RMS(g-h-1)= 2.620E-06  nbox= 13
     iter. #  3351  RMS(g-h-1)= 2.620E-06  nbox=  7
     iter. #  3361  RMS(g-h-1)= 2.620E-06  nbox= 17
     iter. #  3371  RMS(g-h-1)= 2.620E-06  nbox= 11
     iter. #  3381  RMS(g-h-1)= 2.619E-06  nbox=  5
     iter. #  3391  RMS(g-h-1)= 2.629E-06  nbox= 15
     iter. #  3401  RMS(g-h-1)= 2.619E-06  nbox=  9
     iter. #  3411  RMS(g-h-1)= 2.619E-06  nbox=  3
     iter. #  3421  RMS(g-h-1)= 2.621E-06  nbox= 13
     iter. #  3431  RMS(g-h-1)= 2.619E-06  nbox=  7
     iter. #  3441  RMS(g-h-1)= 2.619E-06  nbox= 17
     iter. #  3451  RMS(g-h-1)= 2.620E-06  nbox= 11
     iter. #  3461  RMS(g-h-1)= 2.619E-06  nbox=  5
     iter. #  3471  RMS(g-h-1)= 2.617E-06  nbox= 15
     iter. #  3481  RMS(g-h-1)= 2.615E-06  nbox=  9
     iter. #  3491  RMS(g-h-1)= 2.613E-06  nbox=  3
     iter. #  3501  RMS(g-h-1)= 2.607E-06  nbox= 13
     iter. #  3511  RMS(g-h-1)= 2.604E-06  nbox=  7
     iter. #  3521  RMS(g-h-1)= 2.598E-06  nbox= 17
     iter. #  3531  RMS(g-h-1)= 2.593E-06  nbox= 11
     iter. #  3541  RMS(g-h-1)= 2.589E-06  nbox=  5
     iter. #  3551  RMS(g-h-1)= 2.584E-06  nbox= 15
     iter. #  3561  RMS(g-h-1)= 2.580E-06  nbox=  9
     iter. #  3571  RMS(g-h-1)= 2.579E-06  nbox=  3
     iter. #  3581  RMS(g-h-1)= 2.577E-06  nbox= 13
     iter. #  3591  RMS(g-h-1)= 2.577E-06  nbox=  7
     iter. #  3601  RMS(g-h-1)= 2.577E-06  nbox= 17
     iter. #  3611  RMS(g-h-1)= 2.577E-06  nbox= 11
     iter. #  3621  RMS(g-h-1)= 2.577E-06  nbox=  5
     iter. #  3631  RMS(g-h-1)= 2.577E-06  nbox= 15
     iter. #  3641  RMS(g-h-1)= 2.576E-06  nbox=  9
     iter. #  3651  RMS(g-h-1)= 2.576E-06  nbox=  3
     iter. #  3661  RMS(g-h-1)= 2.576E-06  nbox= 13
     iter. #  3671  RMS(g-h-1)= 2.576E-06  nbox=  7
     iter. #  3681  RMS(g-h-1)= 2.576E-06  nbox= 17
     iter. #  3691  RMS(g-h-1)= 2.575E-06  nbox= 11
     iter. #  3701  RMS(g-h-1)= 2.573E-06  nbox=  5
     iter. #  3711  RMS(g-h-1)= 2.570E-06  nbox= 15
     iter. #  3721  RMS(g-h-1)= 2.567E-06  nbox=  9
     iter. #  3731  RMS(g-h-1)= 2.563E-06  nbox=  3
     iter. #  3741  RMS(g-h-1)= 2.554E-06  nbox= 13
     iter. #  3751  RMS(g-h-1)= 2.546E-06  nbox=  7
     iter. #  3761  RMS(g-h-1)= 2.522E-06  nbox= 17
     iter. #  3771  RMS(g-h-1)= 2.489E-06  nbox= 11
     iter. #  3781  RMS(g-h-1)= 2.468E-06  nbox=  5
     iter. #  3791  RMS(g-h-1)= 2.444E-06  nbox= 15
     iter. #  3801  RMS(g-h-1)= 2.438E-06  nbox=  9
     iter. #  3811  RMS(g-h-1)= 2.436E-06  nbox=  3
     iter. #  3821  RMS(g-h-1)= 2.432E-06  nbox= 13
     iter. #  3831  RMS(g-h-1)= 2.428E-06  nbox=  7
     iter. #  3841  RMS(g-h-1)= 2.420E-06  nbox= 17
     iter. #  3851  RMS(g-h-1)= 2.413E-06  nbox= 11
     iter. #  3861  RMS(g-h-1)= 2.411E-06  nbox=  5
     iter. #  3871  RMS(g-h-1)= 2.411E-06  nbox= 15
     iter. #  3881  RMS(g-h-1)= 2.411E-06  nbox=  9
     iter. #  3891  RMS(g-h-1)= 2.411E-06  nbox=  3
     iter. #  3901  RMS(g-h-1)= 2.410E-06  nbox= 13
     iter. #  3911  RMS(g-h-1)= 2.408E-06  nbox=  7
     iter. #  3921  RMS(g-h-1)= 2.411E-06  nbox= 17
     iter. #  3931  RMS(g-h-1)= 2.408E-06  nbox= 11
     iter. #  3941  RMS(g-h-1)= 2.406E-06  nbox=  5
     iter. #  3951  RMS(g-h-1)= 2.405E-06  nbox= 15
     iter. #  3961  RMS(g-h-1)= 2.405E-06  nbox=  9
     iter. #  3971  RMS(g-h-1)= 2.404E-06  nbox=  3
     iter. #  3981  RMS(g-h-1)= 2.402E-06  nbox= 13
     iter. #  3991  RMS(g-h-1)= 2.401E-06  nbox=  7
     iter. #  4001  RMS(g-h-1)= 2.436E-06  nbox= 17
     iter. #  4011  RMS(g-h-1)= 2.400E-06  nbox= 11
     iter. #  4021  RMS(g-h-1)= 2.398E-06  nbox=  5
     iter. #  4031  RMS(g-h-1)= 2.398E-06  nbox= 15
     iter. #  4041  RMS(g-h-1)= 2.397E-06  nbox=  9
     iter. #  4051  RMS(g-h-1)= 2.396E-06  nbox=  3
     iter. #  4061  RMS(g-h-1)= 2.395E-06  nbox= 13
     iter. #  4071  RMS(g-h-1)= 2.395E-06  nbox=  7
     iter. #  4081  RMS(g-h-1)= 2.395E-06  nbox= 17
     iter. #  4091  RMS(g-h-1)= 2.393E-06  nbox= 11
     iter. #  4101  RMS(g-h-1)= 2.393E-06  nbox=  5
     iter. #  4111  RMS(g-h-1)= 2.393E-06  nbox= 15
     iter. #  4121  RMS(g-h-1)= 2.394E-06  nbox=  9
     iter. #  4131  RMS(g-h-1)= 2.393E-06  nbox=  3
     iter. #  4141  RMS(g-h-1)= 2.393E-06  nbox= 13
     iter. #  4151  RMS(g-h-1)= 2.393E-06  nbox=  7
     iter. #  4161  RMS(g-h-1)= 2.392E-06  nbox= 17
     iter. #  4171  RMS(g-h-1)= 2.392E-06  nbox= 11
     iter. #  4181  RMS(g-h-1)= 2.391E-06  nbox=  5
     iter. #  4191  RMS(g-h-1)= 2.391E-06  nbox= 15
     iter. #  4201  RMS(g-h-1)= 2.392E-06  nbox=  9
     iter. #  4211  RMS(g-h-1)= 2.391E-06  nbox=  3
     iter. #  4221  RMS(g-h-1)= 2.390E-06  nbox= 13
     iter. #  4231  RMS(g-h-1)= 2.393E-06  nbox=  7
     iter. #  4241  RMS(g-h-1)= 2.391E-06  nbox= 17
     iter. #  4251  RMS(g-h-1)= 2.389E-06  nbox= 11
     iter. #  4261  RMS(g-h-1)= 2.389E-06  nbox=  5
     iter. #  4271  RMS(g-h-1)= 2.389E-06  nbox= 15
     iter. #  4281  RMS(g-h-1)= 2.389E-06  nbox=  9
     iter. #  4291  RMS(g-h-1)= 2.389E-06  nbox=  3
     iter. #  4301  RMS(g-h-1)= 2.389E-06  nbox= 13
     iter. #  4311  RMS(g-h-1)= 2.389E-06  nbox=  7
     iter. #  4321  RMS(g-h-1)= 2.389E-06  nbox= 17
     iter. #  4331  RMS(g-h-1)= 2.387E-06  nbox= 11
     iter. #  4341  RMS(g-h-1)= 2.384E-06  nbox=  5
     iter. #  4351  RMS(g-h-1)= 2.384E-06  nbox= 15
     iter. #  4361  RMS(g-h-1)= 2.384E-06  nbox=  9
     iter. #  4371  RMS(g-h-1)= 2.384E-06  nbox=  3
     iter. #  4381  RMS(g-h-1)= 2.384E-06  nbox= 13
     iter. #  4391  RMS(g-h-1)= 2.384E-06  nbox=  7
     iter. #  4401  RMS(g-h-1)= 2.384E-06  nbox= 17
     iter. #  4411  RMS(g-h-1)= 2.383E-06  nbox= 11
     iter. #  4421  RMS(g-h-1)= 2.383E-06  nbox=  5
     iter. #  4431  RMS(g-h-1)= 2.383E-06  nbox= 15
     iter. #  4441  RMS(g-h-1)= 2.383E-06  nbox=  9
     iter. #  4451  RMS(g-h-1)= 2.383E-06  nbox=  3
     iter. #  4461  RMS(g-h-1)= 2.383E-06  nbox= 13
     iter. #  4471  RMS(g-h-1)= 2.383E-06  nbox=  7
     iter. #  4481  RMS(g-h-1)= 2.383E-06  nbox= 17
     iter. #  4491  RMS(g-h-1)= 2.564E-06  nbox= 11
     iter. #  4501  RMS(g-h-1)= 2.383E-06  nbox=  5
     iter. #  4511  RMS(g-h-1)= 2.384E-06  nbox= 15
     iter. #  4521  RMS(g-h-1)= 2.383E-06  nbox=  9
     iter. #  4531  RMS(g-h-1)= 2.382E-06  nbox=  3
     iter. #  4541  RMS(g-h-1)= 2.382E-06  nbox= 13
     iter. #  4551  RMS(g-h-1)= 2.382E-06  nbox=  7
     iter. #  4561  RMS(g-h-1)= 2.381E-06  nbox= 17
     iter. #  4571  RMS(g-h-1)= 2.381E-06  nbox= 11
[...]

     iteration # 24     ecut=    40.00 Ry     beta= 0.10
     Davidson diagonalization with overlap
     ethr =  5.85E-10,  avg # of iterations =  2.0

     negative rho (up, down):  1.425E-03 0.000E+00

     Laue-RISM Calculation

     convergence threshold    = 1.000E-06
     iter. #     1  RMS(g-h-1)= 2.155E-05  nbox=  0
     iter. #    11  RMS(g-h-1)= 2.808E-06  nbox= 10
     iter. #    21  RMS(g-h-1)= 1.234E-06  nbox= 20
     iter. #    31  RMS(g-h-1)= 1.069E-06  nbox= 20
     iter. #    41  RMS(g-h-1)= 9.945E-07  nbox=  7

     End of Laue-RISM calculation


     convergence has been achieved in    41 iterations


     solvent charge   -0.00006, renormalised to    0.00000

     Total number of solvent (in expand-cell)
     H2O           32.746097
     K+             0.644418
     OH-            0.644489

     Total charge of solvent (in expand-cell)
     H2O            0.000010 e
     K+             0.644418 e
     OH-           -0.644492 e
     Total         -0.000064 e

     Chemical potential of solvation (in expand-cell)
     H2O        GaussFluct   0.514641E+01 kcal/mol
     K+         GaussFluct  -0.234979E+00 kcal/mol
     OH-        GaussFluct   0.499142E+00 kcal/mol
     Total      GaussFluct   0.541057E+01 kcal/mol


     total cpu time spent up to now is     1352.6 secs

     total energy              =   -4845.08252528 Ry
     estimated scf accuracy    <       0.00000888 Ry

     iteration # 25     ecut=    40.00 Ry     beta= 0.10
     Davidson diagonalization with overlap
     ethr =  5.85E-10,  avg # of iterations =  1.9

     negative rho (up, down):  1.419E-03 0.000E+00

     Laue-RISM Calculation

     convergence threshold    = 1.000E-06
     iter. #     1  RMS(g-h-1)= 5.969E-05  nbox=  0
     iter. #    11  RMS(g-h-1)= 4.703E-06  nbox= 10
     iter. #    21  RMS(g-h-1)= 2.109E-06  nbox= 20
     iter. #    31  RMS(g-h-1)= 1.605E-06  nbox= 20
     iter. #    41  RMS(g-h-1)= 1.418E-06  nbox=  3
     iter. #    51  RMS(g-h-1)= 1.165E-06  nbox= 13
     iter. #    57  RMS(g-h-1)= 9.856E-07  nbox=  3

     End of Laue-RISM calculation


     convergence has been achieved in    57 iterations


     solvent charge   -0.00001, renormalised to    0.00000

     Total number of solvent (in expand-cell)
     H2O           32.746015
     K+             0.644473
     OH-            0.644492

     Total charge of solvent (in expand-cell)
     H2O            0.000002 e
     K+             0.644473 e
     OH-           -0.644481 e
     Total         -0.000006 e

     Chemical potential of solvation (in expand-cell)
     H2O        GaussFluct   0.514615E+01 kcal/mol
     K+         GaussFluct  -0.236190E+00 kcal/mol
     OH-        GaussFluct   0.500013E+00 kcal/mol
     Total      GaussFluct   0.540997E+01 kcal/mol


     total cpu time spent up to now is     1357.9 secs

     total energy              =   -4845.08252483 Ry
     estimated scf accuracy    <       0.00000660 Ry

     iteration # 26     ecut=    40.00 Ry     beta= 0.10
     Davidson diagonalization with overlap
     ethr =  5.85E-10,  avg # of iterations =  3.8

     negative rho (up, down):  1.587E-03 0.000E+00

     Laue-RISM Calculation

     convergence threshold    = 1.000E-06
     iter. #     1  RMS(g-h-1)= 4.052E-05  nbox=  0
     iter. #    11  RMS(g-h-1)= 7.670E-06  nbox= 10
     iter. #    21  RMS(g-h-1)= 9.498E-06  nbox= 20
     iter. #    31  RMS(g-h-1)= 2.878E-06  nbox= 11
     iter. #    41  RMS(g-h-1)= 2.199E-06  nbox= 20
     iter. #    51  RMS(g-h-1)= 1.826E-06  nbox= 20
     iter. #    61  RMS(g-h-1)= 1.605E-06  nbox=  7
     iter. #    71  RMS(g-h-1)= 1.240E-06  nbox= 17
     iter. #    81  RMS(g-h-1)= 1.118E-06  nbox= 11
     iter. #    89  RMS(g-h-1)= 9.950E-07  nbox=  3

     End of Laue-RISM calculation


     convergence has been achieved in    89 iterations


     solvent charge   -0.00009, renormalised to   -0.00000

     Total number of solvent (in expand-cell)
     H2O           32.746020
     K+             0.644419
     OH-            0.644462

     Total charge of solvent (in expand-cell)
     H2O           -0.000011 e
     K+             0.644419 e
     OH-           -0.644494 e
     Total         -0.000085 e

     Chemical potential of solvation (in expand-cell)
     H2O        GaussFluct   0.514667E+01 kcal/mol
     K+         GaussFluct  -0.240400E+00 kcal/mol
     OH-        GaussFluct   0.504386E+00 kcal/mol
     Total      GaussFluct   0.541066E+01 kcal/mol


     total cpu time spent up to now is     1366.0 secs

     End of self-consistent calculation

          k = 0.1250 0.0722 0.0000 ( 19861 PWs)   bands (ev):

  -117.0636-117.0559-117.0556-117.0556-116.7888-116.7862-116.7812-116.7809
  -116.7809-116.7786-116.7783-116.7783 -74.4933 -74.4933 -74.4878 -74.4597
   -74.4498 -74.4495 -74.4495 -74.4387 -74.4368 -74.4368 -74.4210 -74.4178
   -74.2401 -74.2401 -74.2372 -74.2372 -74.2273 -74.2244 -74.1884 -74.1861
   -74.1792 -74.1792 -74.1768 -74.1768 -74.1710 -74.1686 -74.1588 -74.1564
   -74.1444 -74.1395 -74.1368 -74.1365 -74.1365 -74.1334 -74.1331 -74.1331
   -12.9689 -11.0277  -9.5465  -9.2916  -9.1513  -9.1513  -8.9680  -8.9246
    -8.9246  -8.5969  -8.5569  -8.5569  -8.4609  -8.4609  -8.4605  -7.8833
    -7.8833  -7.8722  -7.5275  -7.5265  -7.5207  -7.5207  -7.4860  -7.4194
    -7.4036  -7.2995  -7.2995  -7.2270  -7.2160  -7.2025  -7.1330  -7.0824
    -7.0699  -7.0469  -7.0469  -6.6746  -6.6746  -6.6483  -6.6427  -6.6366
    -6.5680  -6.5659  -6.5659  -6.5007  -6.3308  -6.2622  -6.2418  -6.2418
    -6.2146  -6.1829  -6.1695  -6.1695  -6.1463  -6.1463  -6.1273  -6.1204
    -6.0162  -6.0162  -5.9378  -5.9378  -5.9209  -5.9089  -5.8046  -5.3060
    -4.5642  -4.5642  -4.3583  -4.2413  -3.5334  -3.5334  -2.5456  -2.5456
    -2.3064  -0.4663  -0.1138  -0.0267  -0.0083  -0.0083   0.0519   0.5606
     0.8154   0.8155   0.8372   1.0004   1.8344   2.0867   2.1555   2.1556
     2.1846

          k = 0.1250 0.3608 0.0000 ( 19876 PWs)   bands (ev):

  -117.0619-117.0573-117.0565-117.0551-116.7871-116.7845-116.7826-116.7817
  -116.7804-116.7800-116.7791-116.7778 -74.4863 -74.4783 -74.4782 -74.4574
   -74.4516 -74.4504 -74.4499 -74.4485 -74.4425 -74.4363 -74.4321 -74.4224
   -74.2330 -74.2303 -74.2259 -74.2232 -74.2183 -74.2156 -74.1921 -74.1917
   -74.1897 -74.1893 -74.1837 -74.1814 -74.1741 -74.1716 -74.1655 -74.1631
   -74.1425 -74.1383 -74.1380 -74.1371 -74.1359 -74.1347 -74.1339 -74.1327
   -12.2527 -10.3729  -9.9605  -9.4441  -9.0453  -9.0165  -8.8447  -8.7708
    -8.6502  -8.4922  -8.4341  -8.3716  -8.2074  -8.1738  -8.1622  -7.8781
    -7.8650  -7.8564  -7.7814  -7.6524  -7.6274  -7.5649  -7.5196  -7.5091
    -7.3904  -7.3575  -7.2974  -7.2790  -7.2291  -7.2149  -7.1785  -7.1744
    -7.1639  -7.0796  -6.9557  -6.9333  -6.9331  -6.8499  -6.8439  -6.8179
    -6.7994  -6.7781  -6.7677  -6.6941  -6.6361  -6.6172  -6.5961  -6.5127
    -6.4884  -6.4862  -6.4197  -6.3319  -6.3308  -6.2712  -6.2707  -6.1722
    -6.1720  -6.1397  -6.1372  -6.1195  -6.0659  -6.0624  -5.9926  -5.5159
    -5.4403  -5.0824  -4.6389  -3.4232  -3.1247  -3.0121  -2.3151  -2.2012
    -1.5254   0.1535   0.1803   0.4735   0.5987   0.6672   0.9954   1.2750
     1.3212   1.5064   1.6777   2.2782   2.5442   2.7400   2.7924   2.9089
     3.1679

          k = 0.1250-0.5052 0.0000 ( 19917 PWs)   bands (ev):

  -117.0604-117.0588-117.0566-117.0550-116.7856-116.7841-116.7831-116.7819
  -116.7815-116.7803-116.7793-116.7777 -74.4781 -74.4757 -74.4642 -74.4595
   -74.4555 -74.4535 -74.4515 -74.4506 -74.4484 -74.4436 -74.4295 -74.4240
   -74.2203 -74.2200 -74.2177 -74.2173 -74.2108 -74.2083 -74.2065 -74.2040
   -74.2003 -74.1979 -74.1883 -74.1859 -74.1727 -74.1703 -74.1654 -74.1630
   -74.1409 -74.1393 -74.1372 -74.1372 -74.1359 -74.1358 -74.1340 -74.1326
   -11.5770 -10.7649  -9.8137  -9.4655  -9.2948  -8.7540  -8.6772  -8.5877
    -8.5100  -8.4704  -8.2836  -8.2738  -8.1091  -8.0732  -8.0411  -7.9203
    -7.8920  -7.8777  -7.8088  -7.8018  -7.6986  -7.6842  -7.5187  -7.5129
    -7.4073  -7.3833  -7.3149  -7.2963  -7.2823  -7.2689  -7.2619  -7.2273
    -7.2149  -7.1475  -7.1231  -7.0815  -7.0808  -7.0630  -7.0098  -6.9899
    -6.9392  -6.7758  -6.7695  -6.7222  -6.6572  -6.6506  -6.6314  -6.5964
    -6.5744  -6.5273  -6.4388  -6.4123  -6.4055  -6.3324  -6.3320  -6.2817
    -6.2309  -6.1699  -6.1378  -6.1281  -6.1239  -6.0680  -6.0643  -6.0060
    -5.3945  -4.6249  -4.5486  -3.8684  -3.4132  -2.2407  -2.1755  -2.0762
    -1.0697  -0.2765   0.8244   0.8833   0.9153   1.3093   1.3656   1.6742
     1.8904   1.9875   2.1811   2.1994   2.2504   2.3009   2.9095   2.9367
     3.0929

          k = 0.1250-0.2165 0.0000 ( 19876 PWs)   bands (ev):

  -117.0630-117.0562-117.0562-117.0553-116.7882-116.7856-116.7815-116.7815
  -116.7806-116.7789-116.7789-116.7780 -74.4876 -74.4876 -74.4871 -74.4589
   -74.4502 -74.4502 -74.4490 -74.4464 -74.4356 -74.4356 -74.4287 -74.4171
   -74.2341 -74.2341 -74.2313 -74.2313 -74.2267 -74.2238 -74.1959 -74.1936
   -74.1785 -74.1784 -74.1784 -74.1761 -74.1760 -74.1760 -74.1582 -74.1558
   -74.1437 -74.1391 -74.1370 -74.1370 -74.1362 -74.1336 -74.1336 -74.1328
   -12.7263 -10.8012  -9.3897  -9.3897  -9.3671  -8.9721  -8.9364  -8.9364
    -8.8098  -8.5502  -8.5502  -8.4788  -8.3554  -8.3554  -8.3417  -7.8773
    -7.8688  -7.8688  -7.6343  -7.4933  -7.4895  -7.4895  -7.4884  -7.4766
    -7.4543  -7.3226  -7.3086  -7.3086  -7.2170  -7.1787  -7.1399  -7.1232
    -7.1232  -7.0931  -6.9857  -6.7959  -6.7631  -6.7631  -6.7395  -6.6611
    -6.6149  -6.5849  -6.5849  -6.5660  -6.4728  -6.4408  -6.3894  -6.3894
    -6.3002  -6.3002  -6.2763  -6.2654  -6.2100  -6.2100  -6.1847  -6.1463
    -6.1301  -6.0626  -6.0626  -6.0319  -6.0319  -6.0189  -5.5107  -5.4987
    -5.4987  -4.5886  -4.5886  -3.8856  -3.7083  -2.8905  -2.3642  -2.1802
    -2.1802  -0.2504  -0.0213   0.1239   0.2040   0.4602   0.4602   0.7988
     1.0596   1.2550   1.4109   1.4109   2.0322   2.0710   2.2497   2.2498
     2.3033

          k = 0.3750-0.0722 0.0000 ( 19876 PWs)   bands (ev):

  -117.0619-117.0573-117.0565-117.0551-116.7871-116.7845-116.7826-116.7817
  -116.7804-116.7800-116.7791-116.7778 -74.4863 -74.4783 -74.4782 -74.4574
   -74.4516 -74.4504 -74.4499 -74.4485 -74.4425 -74.4363 -74.4321 -74.4224
   -74.2330 -74.2303 -74.2259 -74.2232 -74.2184 -74.2156 -74.1921 -74.1917
   -74.1897 -74.1893 -74.1837 -74.1814 -74.1741 -74.1716 -74.1655 -74.1631
   -74.1425 -74.1383 -74.1380 -74.1371 -74.1359 -74.1347 -74.1339 -74.1327
   -12.2527 -10.3729  -9.9605  -9.4441  -9.0453  -9.0165  -8.8447  -8.7708
    -8.6502  -8.4922  -8.4341  -8.3715  -8.2074  -8.1738  -8.1622  -7.8781
    -7.8650  -7.8564  -7.7814  -7.6524  -7.6273  -7.5649  -7.5196  -7.5091
    -7.3904  -7.3575  -7.2974  -7.2790  -7.2291  -7.2149  -7.1785  -7.1744
    -7.1639  -7.0796  -6.9557  -6.9333  -6.9331  -6.8499  -6.8439  -6.8179
    -6.7994  -6.7781  -6.7677  -6.6941  -6.6361  -6.6172  -6.5961  -6.5127
    -6.4884  -6.4862  -6.4197  -6.3319  -6.3308  -6.2712  -6.2707  -6.1722
    -6.1720  -6.1397  -6.1372  -6.1195  -6.0659  -6.0624  -5.9926  -5.5159
    -5.4403  -5.0824  -4.6389  -3.4232  -3.1247  -3.0121  -2.3151  -2.2013
    -1.5253   0.1535   0.1802   0.4735   0.5986   0.6671   0.9953   1.2746
     1.3211   1.5063   1.6776   2.2775   2.5437   2.7402   2.7922   2.9067
     3.1658

          k = 0.3750 0.2165 0.0000 ( 19929 PWs)   bands (ev):

  -117.0614-117.0582-117.0556-117.0556-116.7866-116.7840-116.7834-116.7809
  -116.7809-116.7809-116.7783-116.7783 -74.4844 -74.4844 -74.4674 -74.4568
   -74.4526 -74.4494 -74.4494 -74.4458 -74.4458 -74.4384 -74.4335 -74.4262
   -74.2325 -74.2325 -74.2298 -74.2298 -74.2073 -74.2047 -74.1868 -74.1868
   -74.1844 -74.1844 -74.1833 -74.1810 -74.1789 -74.1765 -74.1761 -74.1738
   -74.1419 -74.1387 -74.1379 -74.1363 -74.1363 -74.1354 -74.1332 -74.1331
   -12.0233 -10.4232 -10.1773  -9.1747  -8.9624  -8.9624  -8.9162  -8.6789
    -8.6789  -8.5165  -8.3552  -8.3552  -8.1618  -8.1069  -8.1069  -7.8460
    -7.8460  -7.8401  -7.8370  -7.7037  -7.6980  -7.6980  -7.5094  -7.4875
    -7.3307  -7.3307  -7.3174  -7.2443  -7.2443  -7.2353  -7.1717  -7.1396
    -7.1286  -7.0436  -7.0306  -7.0248  -7.0248  -6.9458  -6.9458  -6.9428
    -6.9048  -6.7786  -6.7600  -6.6892  -6.6892  -6.6732  -6.6159  -6.5329
    -6.5159  -6.5158  -6.3951  -6.3636  -6.3636  -6.3605  -6.3555  -6.2926
    -6.2702  -6.1346  -6.1346  -6.1158  -6.0962  -6.0284  -6.0284  -5.9545
    -4.9018  -4.5861  -4.5861  -3.5547  -3.4736  -3.4736  -2.7922  -1.1726
    -1.1726  -0.5690   0.3947   0.8356   0.8994   0.9344   0.9345   1.5125
     1.7305   2.0643   2.1103   2.1103   2.7092   2.7794   2.8543   2.8546
     2.9560

          k = 0.3750-0.6495 0.0000 ( 19872 PWs)   bands (ev):

  -117.0592-117.0592-117.0578-117.0546-116.7844-116.7844-116.7831-116.7818
  -116.7818-116.7805-116.7800-116.7774 -74.4780 -74.4707 -74.4635 -74.4569
   -74.4569 -74.4538 -74.4538 -74.4522 -74.4480 -74.4344 -74.4329 -74.4329
   -74.2268 -74.2242 -74.2196 -74.2170 -74.2035 -74.2010 -74.1994 -74.1994
   -74.1969 -74.1969 -74.1803 -74.1803 -74.1779 -74.1779 -74.1752 -74.1728
   -74.1397 -74.1397 -74.1383 -74.1362 -74.1362 -74.1354 -74.1351 -74.1323
   -10.9451 -10.9451 -10.1955  -9.3604  -9.3604  -8.9654  -8.3932  -8.3932
    -8.3697  -8.3682  -8.1961  -8.1916  -8.1599  -8.1433  -8.0238  -8.0088
    -8.0088  -7.8603  -7.8603  -7.7714  -7.6092  -7.5879  -7.5770  -7.5770
    -7.5560  -7.4898  -7.4832  -7.4832  -7.4160  -7.4160  -7.2646  -7.2090
    -7.1943  -7.1903  -7.1181  -7.1062  -7.1062  -7.0951  -7.0134  -7.0134
    -6.8378  -6.8378  -6.7277  -6.6955  -6.6315  -6.6243  -6.6243  -6.5985
    -6.5290  -6.5290  -6.4629  -6.3234  -6.3234  -6.2677  -6.2619  -6.2619
    -6.2169  -6.1865  -6.1797  -6.1797  -6.1584  -6.1567  -5.9910  -5.9909
    -5.9125  -5.4783  -4.0064  -4.0064  -3.2433  -1.9521  -1.3239  -1.3238
    -0.6267  -0.2790  -0.1332  -0.0971   1.4709   1.4716   1.5927   1.7272
     2.0182   2.0185   2.0677   2.0678   2.3308   2.6994   2.7314   2.8100
     2.8600

          k = 0.3750-0.3608 0.0000 ( 19917 PWs)   bands (ev):

  -117.0604-117.0588-117.0566-117.0550-116.7856-116.7841-116.7831-116.7819
  -116.7815-116.7803-116.7793-116.7777 -74.4781 -74.4757 -74.4642 -74.4594
   -74.4555 -74.4535 -74.4515 -74.4506 -74.4484 -74.4436 -74.4295 -74.4240
   -74.2203 -74.2200 -74.2177 -74.2173 -74.2108 -74.2083 -74.2065 -74.2040
   -74.2003 -74.1979 -74.1883 -74.1859 -74.1727 -74.1703 -74.1654 -74.1630
   -74.1409 -74.1393 -74.1372 -74.1372 -74.1359 -74.1358 -74.1340 -74.1326
   -11.5770 -10.7649  -9.8137  -9.4655  -9.2948  -8.7540  -8.6772  -8.5877
    -8.5100  -8.4704  -8.2836  -8.2738  -8.1091  -8.0732  -8.0411  -7.9203
    -7.8920  -7.8777  -7.8088  -7.8018  -7.6986  -7.6842  -7.5187  -7.5129
    -7.4073  -7.3833  -7.3149  -7.2963  -7.2823  -7.2689  -7.2619  -7.2273
    -7.2149  -7.1475  -7.1231  -7.0815  -7.0808  -7.0630  -7.0099  -6.9899
    -6.9392  -6.7758  -6.7695  -6.7222  -6.6572  -6.6506  -6.6314  -6.5964
    -6.5744  -6.5273  -6.4388  -6.4123  -6.4055  -6.3324  -6.3320  -6.2817
    -6.2309  -6.1699  -6.1378  -6.1281  -6.1239  -6.0680  -6.0643  -6.0060
    -5.3945  -4.6249  -4.5486  -3.8684  -3.4132  -2.2407  -2.1755  -2.0762
    -1.0697  -0.2765   0.8244   0.8833   0.9152   1.3094   1.3656   1.6741
     1.8904   1.9871   2.1813   2.1994   2.2503   2.3010   2.9094   2.9359
     3.0872

     the Fermi energy is    -4.5919 ev

!    total energy              =   -4845.08253393 Ry
     estimated scf accuracy    <       0.00000006 Ry
     smearing contrib. (-TS)   =      -0.00806848 Ry
     internal energy E=F+TS    =   -4845.07446546 Ry

     The total energy is F=E-TS. E is the sum of the following terms:
     one-electron contribution =   26930.31595288 Ry
     hartree contribution      =  -13500.20023458 Ry
     xc contribution           =    -465.25639426 Ry
     ewald contribution        =  -17809.95104590 Ry
     solvation energy (RISM)   =       0.01725640 Ry

     convergence has been achieved in  26 iterations

     negative rho (up, down):  1.587E-03 0.000E+00

     Forces acting on atoms (cartesian axes, Ry/au):

     atom    1 type  1   force =     0.00023708    0.00015453    0.00567279
     atom    2 type  1   force =     0.00001839    0.00000947    0.00003301
     atom    3 type  1   force =    -0.00022556   -0.00013428   -0.00698762
     atom    4 type  1   force =     0.00023160    0.00011741    0.00568237
     atom    5 type  1   force =    -0.00001988   -0.00000718    0.00003633
     atom    6 type  1   force =    -0.00023260   -0.00014490   -0.00698414
     atom    7 type  1   force =     0.00021330    0.00013537    0.00568347
     atom    8 type  1   force =    -0.00001736   -0.00000031    0.00003347
     atom    9 type  1   force =    -0.00023900   -0.00011841   -0.00698038
     atom   10 type  1   force =     0.00024739    0.00012523    0.00569047
     atom   11 type  1   force =     0.00001673    0.00000545    0.00005486
     atom   12 type  1   force =    -0.00023009   -0.00014238   -0.00699256

     Total force =     0.013983     Total SCF correction =     0.000579

     Writing all to output data dir ./output/opt.save/ :
     XML data file, charge density, RISM restart, pseudopotentials, RISM molfiles, collected wavefunctions
 
     init_run     :     45.62s CPU     46.16s WALL (       1 calls)
     electrons    :   1229.07s CPU   1241.42s WALL (       1 calls)
     forces       :      0.95s CPU      0.98s WALL (       1 calls)

     Called by init_run:
     wfcinit      :      0.62s CPU      0.64s WALL (       1 calls)
     potinit      :     44.75s CPU     45.23s WALL (       1 calls)
     hinit0       :      0.13s CPU      0.14s WALL (       1 calls)

     Called by electrons:
     c_bands      :     99.09s CPU     99.93s WALL (      26 calls)
     sum_band     :      6.31s CPU      7.07s WALL (      26 calls)
     v_of_rho     :      0.47s CPU      0.55s WALL (      27 calls)
     newd         :      0.93s CPU      1.62s WALL (      27 calls)
     mix_rho      :      0.08s CPU      0.10s WALL (      26 calls)

     Called by c_bands:
     init_us_2    :      0.52s CPU      0.55s WALL (     432 calls)
     cegterg      :     97.20s CPU     97.87s WALL (     229 calls)

     Called by *egterg:
     cdiaghg      :     46.43s CPU     46.52s WALL (    2319 calls)
     h_psi        :     30.00s CPU     30.50s WALL (    2327 calls)
     s_psi        :      2.51s CPU      2.53s WALL (    2327 calls)
     g_psi        :      0.14s CPU      0.14s WALL (    2090 calls)

     Called by h_psi:
     h_psi:calbec :      3.72s CPU      3.77s WALL (    2327 calls)
     vloc_psi     :     23.28s CPU     23.71s WALL (    2327 calls)
     add_vuspsi   :      2.71s CPU      2.74s WALL (    2327 calls)

     General routines
     calbec       :      4.71s CPU      4.77s WALL (    2567 calls)
     fft          :      0.44s CPU      0.52s WALL (     442 calls)
     ffts         :      0.01s CPU      0.01s WALL (      53 calls)
     fftw         :     21.91s CPU     22.31s WALL (  223514 calls)
     interpolate  :      0.03s CPU      0.04s WALL (      27 calls)
 
     Parallel routines
     fft_scatt_xy :      5.88s CPU      5.85s WALL (  254214 calls)
     fft_scatt_yz :     34.33s CPU     34.41s WALL (  254214 calls)

     RISM routines
     1DRISM_pre   :      0.00s CPU      0.00s WALL (       1 calls)
     1DRISM_run   :     76.07s CPU     77.86s WALL (       1 calls)
     3DRISM_pre   :      1.49s CPU      1.52s WALL (       1 calls)
     3DRISM_run   :   1165.33s CPU   1175.70s WALL (      27 calls)
     3DRISM_for   :      0.55s CPU      0.55s WALL (       1 calls)
     3DRISM_vsol  :      0.02s CPU      0.03s WALL (      27 calls)
 
     PWSCF        :  22m32.74s CPU  22m48.22s WALL

 
   This run was terminated on:  15: 7:38   9Jun2024            

=------------------------------------------------------------------------------=
   JOB DONE.
=------------------------------------------------------------------------------=
