3    
6    

1    
  0.0115470053837925   0.0115470053837925   0.0115470053837925
  -0.0001068100   -0.0148195600   -0.0104305000
  -0.0000051000    0.0032924300   -0.0006485400
   0.0001119100    0.0115271300    0.0110790400

1    
 -0.0115470053837925  -0.0115470053837925  -0.0115470053837925
  -0.0001028900    0.0158194367    0.0103310100
  -0.0000118100   -0.0025682733    0.0010532500
   0.0001147000   -0.0132511633   -0.0113842600

2    
  0.0141421356237310   0.0141421356237310   0.0000000000000000
   0.0000814933    0.0092664433   -0.0059276400
  -0.0000864267   -0.0096481167    0.0065872900
   0.0000049333    0.0003816733   -0.0006596500

2    
 -0.0141421356237310  -0.0141421356237310   0.0000000000000000
   0.0000812300   -0.0094863433    0.0056270500
  -0.0000943700    0.0107842267   -0.0065876700
   0.0000131400   -0.0012978833    0.0009606200

2    
  0.0000000000000000   0.0000000000000000   0.0200000000000000
   0.0000000000   -0.0107297000    0.0087874100
   0.0000000000    0.0100232000   -0.0085561500
   0.0000000000    0.0007065000   -0.0002312600

2    
  0.0000000000000000   0.0000000000000000  -0.0200000000000000
   0.0000000000    0.0101963200   -0.0092029600
   0.0000000000   -0.0086210800    0.0086822900
   0.0000000000   -0.0015752400    0.0005206700
