mesh: [     1,     1,     1 ]
nqpoint: 1      
reciprocal_lattice:
- [   0.05291772,   0.00000000,   0.00000000 ] # a*
- [   0.00000000,   0.05291772,   0.00000000 ] # b*
- [   0.00000000,   0.00000000,   0.05291772 ] # c*
natom:   3      
lattice:
- [    18.897261370496903,     0.000000000000000,     0.000000000000000 ] # a
- [     0.000000000000000,    18.897261370496903,     0.000000000000000 ] # b
- [     0.000000000000000,     0.000000000000000,    18.897261370496903 ] # c
points:
- symbol: O  # 1
  coordinates: [  0.500000000000000,  0.500000000000000,  0.530516800000000 ]
  mass: 15.999400
- symbol: H  # 2
  coordinates: [  0.500000000000000,  0.576917600000000,  0.469833900000000 ]
  mass: 1.007940
- symbol: H  # 3
  coordinates: [  0.500000000000000,  0.423082400000000,  0.469833900000000 ]
  mass: 1.007940

phonon:
- q-position: [    0.0000000,    0.0000000,    0.0000000 ]
  distance_from_gamma:  0.000000000
  weight: 1    
  band:
  - # 1
    frequency:    -2.5936206385
    eigenvector:
    - # atom 1
      - [  0.00000000000000,  0.00000000000000 ]
      - [ -0.00000000000000,  0.00000000000000 ]
      - [ -0.00000000000000,  0.00000000000000 ]
    - # atom 2
      - [  0.70710678118655,  0.00000000000000 ]
      - [  0.00000000000001,  0.00000000000000 ]
      - [  0.00000000000002,  0.00000000000000 ]
    - # atom 3
      - [ -0.70710678118655,  0.00000000000000 ]
      - [  0.00000000000001,  0.00000000000000 ]
      - [ -0.00000000000002,  0.00000000000000 ]
  - # 2
    frequency:    -2.0798479804
    eigenvector:
    - # atom 1
      - [ -0.00000000000000,  0.00000000000000 ]
      - [  0.14034056765098,  0.00000000000000 ]
      - [  0.00000000000005,  0.00000000000000 ]
    - # atom 2
      - [ -0.00000000000004,  0.00000000000000 ]
      - [ -0.41146153376720,  0.00000000000000 ]
      - [ -0.56643770069234,  0.00000000000000 ]
    - # atom 3
      - [ -0.00000000000008,  0.00000000000000 ]
      - [ -0.41146153376720,  0.00000000000000 ]
      - [  0.56643770069237,  0.00000000000000 ]
  - # 3
    frequency:    -0.2815007182
    eigenvector:
    - # atom 1
      - [  0.69236173778805,  0.00000000000000 ]
      - [  0.00000000000155,  0.00000000000000 ]
      - [ -0.00000000000002,  0.00000000000000 ]
    - # atom 2
      - [  0.51021330051613,  0.00000000000000 ]
      - [  0.00000000000032,  0.00000000000000 ]
      - [ -0.00000000000010,  0.00000000000000 ]
    - # atom 3
      - [  0.51021330051613,  0.00000000000000 ]
      - [  0.00000000000032,  0.00000000000000 ]
      - [  0.00000000000009,  0.00000000000000 ]
  - # 4
    frequency:    -0.0223928624
    eigenvector:
    - # atom 1
      - [ -0.00000000000001,  0.00000000000000 ]
      - [ -0.00000000001250,  0.00000000000000 ]
      - [  0.94250942151473,  0.00000000000000 ]
    - # atom 2
      - [  0.00000000000003,  0.00000000000000 ]
      - [ -0.00021630271785,  0.00000000000000 ]
      - [  0.23630054674366,  0.00000000000000 ]
    - # atom 3
      - [  0.00000000000003,  0.00000000000000 ]
      - [  0.00021630271235,  0.00000000000000 ]
      - [  0.23630054674267,  0.00000000000000 ]
  - # 5
    frequency:     0.1299372401
    eigenvector:
    - # atom 1
      - [  0.00000000000151,  0.00000000000000 ]
      - [ -0.95299127806042,  0.00000000000000 ]
      - [ -0.00000000001236,  0.00000000000000 ]
    - # atom 2
      - [  0.00000000000057,  0.00000000000000 ]
      - [ -0.21130143163324,  0.00000000000000 ]
      - [  0.03543327475557,  0.00000000000000 ]
    - # atom 3
      - [  0.00000000000056,  0.00000000000000 ]
      - [ -0.21130143163324,  0.00000000000000 ]
      - [ -0.03543327476177,  0.00000000000000 ]
  - # 6
    frequency:     0.5611912213
    eigenvector:
    - # atom 1
      - [  0.72155056929304,  0.00000000000000 ]
      - [  0.00000000000050,  0.00000000000000 ]
      - [  0.00000000000003,  0.00000000000000 ]
    - # atom 2
      - [ -0.48957367982403,  0.00000000000000 ]
      - [  0.00000000000013,  0.00000000000000 ]
      - [  0.00000000000002,  0.00000000000000 ]
    - # atom 3
      - [ -0.48957367982403,  0.00000000000000 ]
      - [  0.00000000000013,  0.00000000000000 ]
      - [ -0.00000000000000,  0.00000000000000 ]
  - # 7
    frequency:    47.1803821374
    eigenvector:
    - # atom 1
      - [ -0.00000000000000,  0.00000000000000 ]
      - [  0.00000000000000,  0.00000000000000 ]
      - [  0.26951504934633,  0.00000000000000 ]
    - # atom 2
      - [  0.00000000000000,  0.00000000000000 ]
      - [ -0.41757570536333,  0.00000000000000 ]
      - [ -0.53787670462499,  0.00000000000000 ]
    - # atom 3
      - [ -0.00000000000000,  0.00000000000000 ]
      - [  0.41757570536333,  0.00000000000000 ]
      - [ -0.53787670462499,  0.00000000000000 ]
  - # 8
    frequency:   113.7982426803
    eigenvector:
    - # atom 1
      - [  0.00000000000000,  0.00000000000000 ]
      - [  0.00000000000000,  0.00000000000000 ]
      - [  0.19757942335124,  0.00000000000000 ]
    - # atom 2
      - [  0.00000000000000,  0.00000000000000 ]
      - [  0.57064041523840,  0.00000000000000 ]
      - [ -0.39351073966367,  0.00000000000000 ]
    - # atom 3
      - [ -0.00000000000000,  0.00000000000000 ]
      - [ -0.57064041523840,  0.00000000000000 ]
      - [ -0.39351073966367,  0.00000000000000 ]
  - # 9
    frequency:   116.8575977441
    eigenvector:
    - # atom 1
      - [ -0.00000000000000,  0.00000000000000 ]
      - [  0.26853705333186,  0.00000000000000 ]
      - [ -0.00000000000000,  0.00000000000000 ]
    - # atom 2
      - [ -0.00000000000000,  0.00000000000000 ]
      - [ -0.53483746243105,  0.00000000000000 ]
      - [  0.42177341579838,  0.00000000000000 ]
    - # atom 3
      - [  0.00000000000000,  0.00000000000000 ]
      - [ -0.53483746243105,  0.00000000000000 ]
      - [ -0.42177341579838,  0.00000000000000 ]
