phonopy:
  version: "2.23.1"
  calculator: qe
  frequency_unit_conversion_factor: 108.970772
  symmetry_tolerance: 1.00000e-05
  configuration:
    atom_name: "O H"
    dim: "1 1 1"
    mp: "1 1 1"
    eigenvectors: ".TRUE."

physical_unit:
  atomic_mass: "AMU"
  length: "au"
  force: "Ry/au"
  force_constants: "Ry/au^2"

space_group:
  type: "Pmm2"
  number: 25
  Hall_symbol: "P 2 -2"

supercell_matrix:
- [   1,   0,   0 ]
- [   0,   1,   0 ]
- [   0,   0,   1 ]

primitive_cell:
  lattice:
  - [    18.897261370496903,     0.000000000000000,     0.000000000000000 ] # a
  - [     0.000000000000000,    18.897261370496903,     0.000000000000000 ] # b
  - [     0.000000000000000,     0.000000000000000,    18.897261370496903 ] # c
  points:
  - symbol: O  # 1
    coordinates: [  0.500000000000000,  0.500000000000000,  0.530516800000000 ]
    mass: 15.999400
  - symbol: H  # 2
    coordinates: [  0.500000000000000,  0.576917600000000,  0.469833900000000 ]
    mass: 1.007940
  - symbol: H  # 3
    coordinates: [  0.500000000000000,  0.423082400000000,  0.469833900000000 ]
    mass: 1.007940
  reciprocal_lattice: # without 2pi
  - [     0.052917720742395,     0.000000000000000,     0.000000000000000 ] # a*
  - [     0.000000000000000,     0.052917720742395,     0.000000000000000 ] # b*
  - [     0.000000000000000,     0.000000000000000,     0.052917720742395 ] # c*

unit_cell:
  lattice:
  - [    18.897261370496903,     0.000000000000000,     0.000000000000000 ] # a
  - [     0.000000000000000,    18.897261370496903,     0.000000000000000 ] # b
  - [     0.000000000000000,     0.000000000000000,    18.897261370496903 ] # c
  points:
  - symbol: O  # 1
    coordinates: [  0.500000000000000,  0.500000000000000,  0.530516800000000 ]
    mass: 15.999400
    reduced_to: 1
  - symbol: H  # 2
    coordinates: [  0.500000000000000,  0.576917600000000,  0.469833900000000 ]
    mass: 1.007940
    reduced_to: 2
  - symbol: H  # 3
    coordinates: [  0.500000000000000,  0.423082400000000,  0.469833900000000 ]
    mass: 1.007940
    reduced_to: 3

supercell:
  lattice:
  - [    18.897261370496903,     0.000000000000000,     0.000000000000000 ] # a
  - [     0.000000000000000,    18.897261370496903,     0.000000000000000 ] # b
  - [     0.000000000000000,     0.000000000000000,    18.897261370496903 ] # c
  points:
  - symbol: O  # 1
    coordinates: [  0.500000000000000,  0.500000000000000,  0.530516800000000 ]
    mass: 15.999400
    reduced_to: 1
  - symbol: H  # 2
    coordinates: [  0.500000000000000,  0.576917600000000,  0.469833900000000 ]
    mass: 1.007940
    reduced_to: 2
  - symbol: H  # 3
    coordinates: [  0.500000000000000,  0.423082400000000,  0.469833900000000 ]
    mass: 1.007940
    reduced_to: 3
