# Tetrahedron method
      -14.5387424768        0.0000000000
      -13.8220351665        0.0000000000
      -13.1053278562        0.0000000000
      -12.3886205459        0.0000000000
      -11.6719132356        0.0000000000
      -10.9552059253        0.0000000000
      -10.2384986150        0.0000000000
       -9.5217913047        0.0000000000
       -8.8050839944        0.0000000000
       -8.0883766841        0.0000000000
       -7.3716693738        0.0000000000
       -6.6549620635        0.0000000000
       -5.9382547532        0.0000000000
       -5.2215474429        0.0000000000
       -4.5048401326        0.0000000000
       -3.7881328223        0.0000000000
       -3.0714255120        0.0000000000
       -2.3547182017        0.0000000000
       -1.6380108914        0.0000000000
       -0.9213035811        0.0000000000
       -0.2045962708        0.0000000000
        0.5121110394        0.0000000000
        1.2288183497        0.0000000000
        1.9455256600        0.0000000000
        2.6622329703        0.0000000000
        3.3789402806        0.0000000000
        4.0956475909        0.0000000000
        4.8123549012        0.0000000000
        5.5290622115        0.0000000000
        6.2457695218        0.0000000000
        6.9624768321        0.0000000000
        7.6791841424        0.0000000000
        8.3958914527        0.0000000000
        9.1125987630        0.0000000000
        9.8293060733        0.0000000000
       10.5460133836        0.0000000000
       11.2627206939        0.0000000000
       11.9794280042        0.0000000000
       12.6961353145        0.0000000000
       13.4128426248        0.0000000000
       14.1295499351        0.0000000000
       14.8462572454        0.0000000000
       15.5629645557        0.0000000000
       16.2796718659        0.0000000000
       16.9963791762        0.0000000000
       17.7130864865        0.0000000000
       18.4297937968        0.0000000000
       19.1465011071        0.0000000000
       19.8632084174        0.0000000000
       20.5799157277        0.0000000000
       21.2966230380        0.0000000000
       22.0133303483        0.0000000000
       22.7300376586        0.0000000000
       23.4467449689        0.0000000000
       24.1634522792        0.0000000000
       24.8801595895        0.0000000000
       25.5968668998        0.0000000000
       26.3135742101        0.0000000000
       27.0302815204        0.0000000000
       27.7469888307        0.0000000000
       28.4636961410        0.0000000000
       29.1804034513        0.0000000000
       29.8971107616        0.0000000000
       30.6138180719        0.0000000000
       31.3305253822        0.0000000000
       32.0472326924        0.0000000000
       32.7639400027        0.0000000000
       33.4806473130        0.0000000000
       34.1973546233        0.0000000000
       34.9140619336        0.0000000000
       35.6307692439        0.0000000000
       36.3474765542        0.0000000000
       37.0641838645        0.0000000000
       37.7808911748        0.0000000000
       38.4975984851        0.0000000000
       39.2143057954        0.0000000000
       39.9310131057        0.0000000000
       40.6477204160        0.0000000000
       41.3644277263        0.0000000000
       42.0811350366        0.0000000000
       42.7978423469        0.0000000000
       43.5145496572        0.0000000000
       44.2312569675        0.0000000000
       44.9479642778        0.0000000000
       45.6646715881        0.0000000000
       46.3813788984        0.0000000000
       47.0980862086        0.0000000000
       47.8147935189        0.0000000000
       48.5315008292        0.0000000000
       49.2482081395        0.0000000000
       49.9649154498        0.0000000000
       50.6816227601        0.0000000000
       51.3983300704        0.0000000000
       52.1150373807        0.0000000000
       52.8317446910        0.0000000000
       53.5484520013        0.0000000000
       54.2651593116        0.0000000000
       54.9818666219        0.0000000000
       55.6985739322        0.0000000000
       56.4152812425        0.0000000000
       57.1319885528        0.0000000000
       57.8486958631        0.0000000000
       58.5654031734        0.0000000000
       59.2821104837        0.0000000000
       59.9988177940        0.0000000000
       60.7155251043        0.0000000000
       61.4322324146        0.0000000000
       62.1489397249        0.0000000000
       62.8656470351        0.0000000000
       63.5823543454        0.0000000000
       64.2990616557        0.0000000000
       65.0157689660        0.0000000000
       65.7324762763        0.0000000000
       66.4491835866        0.0000000000
       67.1658908969        0.0000000000
       67.8825982072        0.0000000000
       68.5993055175        0.0000000000
       69.3160128278        0.0000000000
       70.0327201381        0.0000000000
       70.7494274484        0.0000000000
       71.4661347587        0.0000000000
       72.1828420690        0.0000000000
       72.8995493793        0.0000000000
       73.6162566896        0.0000000000
       74.3329639999        0.0000000000
       75.0496713102        0.0000000000
       75.7663786205        0.0000000000
       76.4830859308        0.0000000000
       77.1997932411        0.0000000000
       77.9165005514        0.0000000000
       78.6332078616        0.0000000000
       79.3499151719        0.0000000000
       80.0666224822        0.0000000000
       80.7833297925        0.0000000000
       81.5000371028        0.0000000000
       82.2167444131        0.0000000000
       82.9334517234        0.0000000000
       83.6501590337        0.0000000000
       84.3668663440        0.0000000000
       85.0835736543        0.0000000000
       85.8002809646        0.0000000000
       86.5169882749        0.0000000000
       87.2336955852        0.0000000000
       87.9504028955        0.0000000000
       88.6671102058        0.0000000000
       89.3838175161        0.0000000000
       90.1005248264        0.0000000000
       90.8172321367        0.0000000000
       91.5339394470        0.0000000000
       92.2506467573        0.0000000000
       92.9673540676        0.0000000000
       93.6840613779        0.0000000000
       94.4007686881        0.0000000000
       95.1174759984        0.0000000000
       95.8341833087        0.0000000000
       96.5508906190        0.0000000000
       97.2675979293        0.0000000000
       97.9843052396        0.0000000000
       98.7010125499        0.0000000000
       99.4177198602        0.0000000000
      100.1344271705        0.0000000000
      100.8511344808        0.0000000000
      101.5678417911        0.0000000000
      102.2845491014        0.0000000000
      103.0012564117        0.0000000000
      103.7179637220        0.0000000000
      104.4346710323        0.0000000000
      105.1513783426        0.0000000000
      105.8680856529        0.0000000000
      106.5847929632        0.0000000000
      107.3015002735        0.0000000000
      108.0182075838        0.0000000000
      108.7349148941        0.0000000000
      109.4516222044        0.0000000000
      110.1683295146        0.0000000000
      110.8850368249        0.0000000000
      111.6017441352        0.0000000000
      112.3184514455        0.0000000000
      113.0351587558        0.0000000000
      113.7518660661        0.0000000000
      114.4685733764        0.0000000000
      115.1852806867        0.0000000000
      115.9019879970        0.0000000000
      116.6186953073        0.0000000000
      117.3354026176        0.0000000000
      118.0521099279        0.0000000000
      118.7688172382        0.0000000000
      119.4855245485        0.0000000000
      120.2022318588        0.0000000000
      120.9189391691        0.0000000000
      121.6356464794        0.0000000000
      122.3523537897        0.0000000000
      123.0690611000        0.0000000000
      123.7857684103        0.0000000000
      124.5024757206        0.0000000000
      125.2191830309        0.0000000000
      125.9358903411        0.0000000000
      126.6525976514        0.0000000000
      127.3693049617        0.0000000000
      128.0860122720        0.0000000000
      128.8027195823        0.0000000000
