
     Program PWSCF v.7.3.1 starts on  4Jun2024 at 10:22:56 

     This program is part of the open-source Quantum ESPRESSO suite
     for quantum simulation of materials; please cite
         "P. Giannozzi et al., J. Phys.:Condens. Matter 21 395502 (2009);
         "P. Giannozzi et al., J. Phys.:Condens. Matter 29 465901 (2017);
         "P. Giannozzi et al., J. Chem. Phys. 152 154105 (2020);
          URL http://www.quantum-espresso.org", 
     in publications or presentations arising from this work. More details at
     http://www.quantum-espresso.org/quote

     Parallel version (MPI), running on    16 processors

     MPI processes distributed on     1 nodes
     184292 MiB available memory on the printing compute node when the environment starts
 
     Reading input from espresso.pwi
Warning: card &CELL ignored
Warning: card / ignored
Warning: card &FCP ignored
Warning: card / ignored
Warning: card &RISM ignored
Warning: card / ignored

     Current dimensions of program PWSCF are:
     Max number of different atomic species (ntypx) = 10
     Max number of k-points (npk) =  40000
     Max angular momentum in pseudopotentials (lmaxx) =  4

     gamma-point specific algorithms are used
 
     R & G space division:  proc/nbgrp/npool/nimage =      16
     Subspace diagonalization in iterative solution of the eigenvalue problem:
     a serial algorithm will be used

 
     Parallelization info
     --------------------
     sticks:   dense  smooth     PW     G-vecs:    dense   smooth      PW
     Min         566     281     69                40786    14396    1790
     Max         568     286     72                40796    14402    1796
     Sum        9085    4537   1129               652671   230389   28671
 
     Using Slab Decomposition
 


     bravais-lattice index     =            0
     lattice parameter (alat)  =      18.8973  a.u.
     unit-cell volume          =    6748.3345 (a.u.)^3
     number of atoms/cell      =            3
     number of atomic types    =            2
     number of electrons       =         8.00
     number of Kohn-Sham states=            8
     kinetic-energy cutoff     =      40.0000  Ry
     charge density cutoff     =     320.0000  Ry
     scf convergence threshold =      1.0E-08
     mixing beta               =       0.6000
     number of iterations used =            8  plain     mixing
     Exchange-correlation=  SLA  PW   PBX  PBC
                           (   1   4   3   4   0   0   0)

     celldm(1)=  18.897261  celldm(2)=   0.000000  celldm(3)=   0.000000
     celldm(4)=   0.000000  celldm(5)=   0.000000  celldm(6)=   0.000000

     crystal axes: (cart. coord. in units of alat)
               a(1) = (   1.000000   0.000000   0.000000 )  
               a(2) = (   0.000000   1.000000   0.000000 )  
               a(3) = (   0.000000   0.000000   1.000000 )  

     reciprocal axes: (cart. coord. in units 2 pi/alat)
               b(1) = (  1.000000  0.000000  0.000000 )  
               b(2) = (  0.000000  1.000000  0.000000 )  
               b(3) = (  0.000000  0.000000  1.000000 )  


     PseudoPot. # 1 for O  read from file:
     ../../pseudo/o_pbe_v1.2.uspp.F.UPF
     MD5 check sum: 734c27235a0248c51dbae37a1fbe46ec
     Pseudo is Ultrasoft + core correction, Zval =  6.0
     Generated by new atomic code, or converted to UPF format
     Using radial grid of  737 points,  5 beta functions with: 
                l(1) =   0
                l(2) =   0
                l(3) =   1
                l(4) =   1
                l(5) =   2
     Q(r) pseudized with  8 coefficients,  rinner =    0.900   0.900   0.900
                                                       0.900   0.900

     PseudoPot. # 2 for H  read from file:
     ../../pseudo/h_pbe_v1.4.uspp.F.UPF
     MD5 check sum: 761ae9a214b05c3daf00ab9f6b793d6f
     Pseudo is Ultrasoft, Zval =  1.0
     Generated by new atomic code, or converted to UPF format
     Using radial grid of  615 points,  2 beta functions with: 
                l(1) =   0
                l(2) =   0
     Q(r) pseudized with  8 coefficients,  rinner =    0.700

     atomic species   valence    mass     pseudopotential
     O                 6.00    15.99900     O ( 1.00)
     H                 1.00     1.00800     H ( 1.00)

     No symmetry found



   Cartesian axes

     site n.     atom                  positions (alat units)
         1        O      tau(   1) = (   0.5000000   0.5000000   0.5305168  )
         2        H      tau(   2) = (   0.5000000   0.5769176   0.4698339  )
         3        H      tau(   3) = (   0.5000000   0.4230824   0.4708339  )

     number of k points=     1  Gaussian smearing, width (Ry)=  0.0100
                       cart. coord. in units 2pi/alat
        k(    1) = (   0.0000000   0.0000000   0.0000000), wk =   2.0000000

     Dense  grid:   326336 G-vectors     FFT dimensions: ( 108, 108, 108)

     Smooth grid:   115195 G-vectors     FFT dimensions: (  80,  80,  80)

     Estimated max dynamical RAM per process >      51.39 MB

     Estimated total dynamical RAM >     822.24 MB

     Initial potential from superposition of free atoms

     starting charge       8.0000, renormalised to       8.0000

     negative rho (up, down):  1.422E-04 0.000E+00
     Starting wfcs are    6 randomized atomic wfcs +    2 random wfcs

     total cpu time spent up to now is        0.3 secs

     Self-consistent Calculation

     iteration #  1     ecut=    40.00 Ry     beta= 0.60
     Davidson diagonalization with overlap
     ethr =  1.00E-02,  avg # of iterations =  6.0

     negative rho (up, down):  1.244E-03 0.000E+00

     total cpu time spent up to now is        0.5 secs

     total energy              =     -34.49877716 Ry
     estimated scf accuracy    <       0.45856223 Ry

     iteration #  2     ecut=    40.00 Ry     beta= 0.60
     Davidson diagonalization with overlap
     ethr =  5.73E-03,  avg # of iterations =  2.0

     negative rho (up, down):  1.515E-03 0.000E+00

     total cpu time spent up to now is        0.6 secs

     total energy              =     -34.62869377 Ry
     estimated scf accuracy    <       0.23047854 Ry

     iteration #  3     ecut=    40.00 Ry     beta= 0.60
     Davidson diagonalization with overlap
     ethr =  2.88E-03,  avg # of iterations =  2.0

     negative rho (up, down):  1.919E-03 0.000E+00

     total cpu time spent up to now is        0.7 secs

     total energy              =     -34.66621988 Ry
     estimated scf accuracy    <       0.00497838 Ry

     iteration #  4     ecut=    40.00 Ry     beta= 0.60
     Davidson diagonalization with overlap
     ethr =  6.22E-05,  avg # of iterations =  8.0

     negative rho (up, down):  1.947E-03 0.000E+00

     total cpu time spent up to now is        0.8 secs

     total energy              =     -34.66687963 Ry
     estimated scf accuracy    <       0.00109890 Ry

     iteration #  5     ecut=    40.00 Ry     beta= 0.60
     Davidson diagonalization with overlap
     ethr =  1.37E-05,  avg # of iterations = 10.0

     negative rho (up, down):  1.982E-03 0.000E+00

     total cpu time spent up to now is        0.9 secs

     total energy              =     -34.66682774 Ry
     estimated scf accuracy    <       0.00016810 Ry

     iteration #  6     ecut=    40.00 Ry     beta= 0.60
     Davidson diagonalization with overlap
     ethr =  2.10E-06,  avg # of iterations =  5.0

     negative rho (up, down):  1.993E-03 0.000E+00

     total cpu time spent up to now is        1.0 secs

     total energy              =     -34.66688329 Ry
     estimated scf accuracy    <       0.00005009 Ry

     iteration #  7     ecut=    40.00 Ry     beta= 0.60
     Davidson diagonalization with overlap
     ethr =  6.26E-07,  avg # of iterations =  2.0

     negative rho (up, down):  2.005E-03 0.000E+00

     total cpu time spent up to now is        1.1 secs

     total energy              =     -34.66688701 Ry
     estimated scf accuracy    <       0.00000314 Ry

     iteration #  8     ecut=    40.00 Ry     beta= 0.60
     Davidson diagonalization with overlap
     ethr =  3.93E-08,  avg # of iterations =  2.0

     negative rho (up, down):  2.008E-03 0.000E+00

     total cpu time spent up to now is        1.2 secs

     total energy              =     -34.66688760 Ry
     estimated scf accuracy    <       0.00000005 Ry

     iteration #  9     ecut=    40.00 Ry     beta= 0.60
     Davidson diagonalization with overlap
     ethr =  6.16E-10,  avg # of iterations =  3.0

     negative rho (up, down):  2.008E-03 0.000E+00

     total cpu time spent up to now is        1.3 secs

     total energy              =     -34.66688762 Ry
     estimated scf accuracy    <       0.00000001 Ry

     iteration # 10     ecut=    40.00 Ry     beta= 0.60
     Davidson diagonalization with overlap
     ethr =  1.56E-10,  avg # of iterations =  2.0

     negative rho (up, down):  2.009E-03 0.000E+00

     total cpu time spent up to now is        1.4 secs

     End of self-consistent calculation

          k = 0.0000 0.0000 0.0000 ( 14336 PWs)   bands (ev):

   -25.0784 -12.8915  -9.2133  -7.1096  -1.0045   0.3144   0.6961   1.0124

     the Fermi energy is    -4.8300 ev

!    total energy              =     -34.66688763 Ry
     estimated scf accuracy    <          3.6E-09 Ry
     smearing contrib. (-TS)   =      -0.00000000 Ry
     internal energy E=F+TS    =     -34.66688763 Ry

     The total energy is F=E-TS. E is the sum of the following terms:
     one-electron contribution =     -63.19806553 Ry
     hartree contribution      =      33.10113106 Ry
     xc contribution           =      -8.68350890 Ry
     ewald contribution        =       4.11355574 Ry

     convergence has been achieved in  10 iterations

     negative rho (up, down):  2.009E-03 0.000E+00

     Forces acting on atoms (cartesian axes, Ry/au):

     atom    1 type  1   force =    -0.00000042    0.01012379    0.00827911
     atom    2 type  2   force =     0.00000019   -0.00063426   -0.00020843
     atom    3 type  2   force =     0.00000023   -0.00948953   -0.00807067

     Total force =     0.018074     Total SCF correction =     0.000118

     Writing all to output data dir ./output/opt.save/ :
     XML data file, charge density, pseudopotentials, collected wavefunctions
 
     init_run     :      0.15s CPU      0.21s WALL (       1 calls)
     electrons    :      0.95s CPU      1.05s WALL (       1 calls)
     forces       :      0.07s CPU      0.07s WALL (       1 calls)

     Called by init_run:
     wfcinit      :      0.00s CPU      0.01s WALL (       1 calls)
     potinit      :      0.04s CPU      0.05s WALL (       1 calls)
     hinit0       :      0.03s CPU      0.05s WALL (       1 calls)

     Called by electrons:
     c_bands      :      0.10s CPU      0.11s WALL (      10 calls)
     sum_band     :      0.30s CPU      0.33s WALL (      10 calls)
     v_of_rho     :      0.24s CPU      0.27s WALL (      11 calls)
     newd         :      0.29s CPU      0.32s WALL (      11 calls)
     mix_rho      :      0.04s CPU      0.04s WALL (      10 calls)

     Called by c_bands:
     init_us_2    :      0.00s CPU      0.00s WALL (      21 calls)
     regterg      :      0.09s CPU      0.10s WALL (      10 calls)

     Called by *egterg:
     rdiaghg      :      0.00s CPU      0.01s WALL (      52 calls)
     h_psi        :      0.08s CPU      0.09s WALL (      53 calls)
     s_psi        :      0.00s CPU      0.00s WALL (      53 calls)
     g_psi        :      0.00s CPU      0.00s WALL (      42 calls)

     Called by h_psi:
     h_psi:calbec :      0.00s CPU      0.00s WALL (      53 calls)
     vloc_psi     :      0.08s CPU      0.09s WALL (      53 calls)
     add_vuspsi   :      0.00s CPU      0.00s WALL (      53 calls)

     General routines
     calbec       :      0.00s CPU      0.00s WALL (      67 calls)
     fft          :      0.21s CPU      0.25s WALL (     128 calls)
     ffts         :      0.01s CPU      0.01s WALL (      21 calls)
     fftw         :      0.07s CPU      0.08s WALL (     310 calls)
     interpolate  :      0.02s CPU      0.03s WALL (      11 calls)
 
     Parallel routines
 
     PWSCF        :      1.29s CPU      1.52s WALL

 
   This run was terminated on:  10:22:58   4Jun2024            

=------------------------------------------------------------------------------=
   JOB DONE.
=------------------------------------------------------------------------------=
