
     Program PWSCF v.7.2 starts on  4Jun2024 at 10:56: 1 

     This program is part of the open-source Quantum ESPRESSO suite
     for quantum simulation of materials; please cite
         "P. Giannozzi et al., J. Phys.:Condens. Matter 21 395502 (2009);
         "P. Giannozzi et al., J. Phys.:Condens. Matter 29 465901 (2017);
         "P. Giannozzi et al., J. Chem. Phys. 152 154105 (2020);
          URL http://www.quantum-espresso.org", 
     in publications or presentations arising from this work. More details at
     http://www.quantum-espresso.org/quote

     Parallel version (MPI), running on    16 processors

     MPI processes distributed on     1 nodes
     181797 MiB available memory on the printing compute node when the environment starts
 
     Reading input from supercell-004.in
Warning: card &CELL ignored
Warning: card / ignored

     Current dimensions of program PWSCF are:
     Max number of different atomic species (ntypx) = 10
     Max number of k-points (npk) =  40000
     Max angular momentum in pseudopotentials (lmaxx) =  4

     gamma-point specific algorithms are used
 
     R & G space division:  proc/nbgrp/npool/nimage =      16
     Subspace diagonalization in iterative solution of the eigenvalue problem:
     a serial algorithm will be used

 
     Parallelization info
     --------------------
     sticks:   dense  smooth     PW     G-vecs:    dense   smooth      PW
     Min         566     281     69                40786    14396    1790
     Max         568     286     72                40796    14402    1796
     Sum        9085    4537   1129               652671   230389   28671
 
     Using Slab Decomposition
 


     bravais-lattice index     =            0
     lattice parameter (alat)  =      18.8973  a.u.
     unit-cell volume          =    6748.3346 (a.u.)^3
     number of atoms/cell      =            3
     number of atomic types    =            2
     number of electrons       =         8.00
     number of Kohn-Sham states=            4
     kinetic-energy cutoff     =      40.0000  Ry
     charge density cutoff     =     320.0000  Ry
     scf convergence threshold =      1.0E-08
     mixing beta               =       0.3000
     number of iterations used =            8  plain     mixing
     Exchange-correlation=  SLA  PW   PBX  PBC
                           (   1   4   3   4   0   0   0)

     celldm(1)=  18.897261  celldm(2)=   0.000000  celldm(3)=   0.000000
     celldm(4)=   0.000000  celldm(5)=   0.000000  celldm(6)=   0.000000

     crystal axes: (cart. coord. in units of alat)
               a(1) = (   1.000000   0.000000   0.000000 )  
               a(2) = (   0.000000   1.000000   0.000000 )  
               a(3) = (   0.000000   0.000000   1.000000 )  

     reciprocal axes: (cart. coord. in units 2 pi/alat)
               b(1) = (  1.000000  0.000000  0.000000 )  
               b(2) = (  0.000000  1.000000  0.000000 )  
               b(3) = (  0.000000  0.000000  1.000000 )  


     PseudoPot. # 1 for O  read from file:
     /beegfs/hotpool/mano/rism/RISM_example/pseudo/o_pbe_v1.2.uspp.F.UPF
     MD5 check sum: 734c27235a0248c51dbae37a1fbe46ec
     Pseudo is Ultrasoft + core correction, Zval =  6.0
     Generated by new atomic code, or converted to UPF format
     Using radial grid of  737 points,  5 beta functions with: 
                l(1) =   0
                l(2) =   0
                l(3) =   1
                l(4) =   1
                l(5) =   2
     Q(r) pseudized with  8 coefficients,  rinner =    0.900   0.900   0.900
                                                       0.900   0.900

     PseudoPot. # 2 for H  read from file:
     /beegfs/hotpool/mano/rism/RISM_example/pseudo/h_pbe_v1.4.uspp.F.UPF
     MD5 check sum: 761ae9a214b05c3daf00ab9f6b793d6f
     Pseudo is Ultrasoft, Zval =  1.0
     Generated by new atomic code, or converted to UPF format
     Using radial grid of  615 points,  2 beta functions with: 
                l(1) =   0
                l(2) =   0
     Q(r) pseudized with  8 coefficients,  rinner =    0.700

     atomic species   valence    mass     pseudopotential
        O              6.00    15.99940     O ( 1.00)
        H              1.00     1.00794     H ( 1.00)

     No symmetry found



   Cartesian axes

     site n.     atom                  positions (alat units)
         1           O   tau(   1) = (   0.5000000   0.5000000   0.5305168  )
         2           H   tau(   2) = (   0.4992516   0.5761692   0.4698339  )
         3           H   tau(   3) = (   0.5000000   0.4230824   0.4698339  )

     number of k points=     1
                       cart. coord. in units 2pi/alat
        k(    1) = (   0.0000000   0.0000000   0.0000000), wk =   2.0000000

     Dense  grid:   326336 G-vectors     FFT dimensions: ( 108, 108, 108)

     Smooth grid:   115195 G-vectors     FFT dimensions: (  80,  80,  80)

     Estimated max dynamical RAM per process >      51.34 MB

     Estimated total dynamical RAM >     821.37 MB

     Initial potential from superposition of free atoms

     starting charge       8.0000, renormalised to       8.0000

     negative rho (up, down):  1.419E-04 0.000E+00
     Starting wfcs are    6 randomized atomic wfcs

     total cpu time spent up to now is        0.6 secs

     Self-consistent Calculation

     iteration #  1     ecut=    40.00 Ry     beta= 0.30
     Davidson diagonalization with overlap
     ethr =  1.00E-02,  avg # of iterations =  2.0

     negative rho (up, down):  5.672E-04 0.000E+00

     total cpu time spent up to now is        0.7 secs

     total energy              =     -34.61700630 Ry
     estimated scf accuracy    <       0.46654040 Ry

     iteration #  2     ecut=    40.00 Ry     beta= 0.30
     Davidson diagonalization with overlap
     ethr =  5.83E-03,  avg # of iterations =  2.0

     negative rho (up, down):  9.951E-04 0.000E+00

     total cpu time spent up to now is        0.8 secs

     total energy              =     -34.66322781 Ry
     estimated scf accuracy    <       0.04442634 Ry

     iteration #  3     ecut=    40.00 Ry     beta= 0.30
     Davidson diagonalization with overlap
     ethr =  5.55E-04,  avg # of iterations =  2.0

     negative rho (up, down):  1.810E-03 0.000E+00

     total cpu time spent up to now is        1.0 secs

     total energy              =     -34.66578684 Ry
     estimated scf accuracy    <       0.01377494 Ry

     iteration #  4     ecut=    40.00 Ry     beta= 0.30
     Davidson diagonalization with overlap
     ethr =  1.72E-04,  avg # of iterations =  2.0

     negative rho (up, down):  1.926E-03 0.000E+00

     total cpu time spent up to now is        1.1 secs

     total energy              =     -34.66580300 Ry
     estimated scf accuracy    <       0.00605671 Ry

     iteration #  5     ecut=    40.00 Ry     beta= 0.30
     Davidson diagonalization with overlap
     ethr =  7.57E-05,  avg # of iterations =  2.0

     negative rho (up, down):  1.887E-03 0.000E+00

     total cpu time spent up to now is        1.2 secs

     total energy              =     -34.66689074 Ry
     estimated scf accuracy    <       0.00004560 Ry

     iteration #  6     ecut=    40.00 Ry     beta= 0.30
     Davidson diagonalization with overlap
     ethr =  5.70E-07,  avg # of iterations =  2.0

     negative rho (up, down):  1.883E-03 0.000E+00

     total cpu time spent up to now is        1.3 secs

     total energy              =     -34.66690184 Ry
     estimated scf accuracy    <       0.00005389 Ry

     iteration #  7     ecut=    40.00 Ry     beta= 0.30
     Davidson diagonalization with overlap
     ethr =  5.70E-07,  avg # of iterations =  2.0

     negative rho (up, down):  1.789E-03 0.000E+00

     total cpu time spent up to now is        1.4 secs

     total energy              =     -34.66720150 Ry
     estimated scf accuracy    <       0.00005513 Ry

     iteration #  8     ecut=    40.00 Ry     beta= 0.30
     Davidson diagonalization with overlap
     ethr =  5.70E-07,  avg # of iterations =  4.0

     negative rho (up, down):  1.923E-03 0.000E+00

     total cpu time spent up to now is        1.5 secs

     total energy              =     -34.66666662 Ry
     estimated scf accuracy    <       0.00256214 Ry

     iteration #  9     ecut=    40.00 Ry     beta= 0.30
     Davidson diagonalization with overlap
     ethr =  5.70E-07,  avg # of iterations =  4.0

     negative rho (up, down):  2.037E-03 0.000E+00

     total cpu time spent up to now is        1.6 secs

     total energy              =     -34.66680639 Ry
     estimated scf accuracy    <       0.00015659 Ry

     iteration # 10     ecut=    40.00 Ry     beta= 0.30
     Davidson diagonalization with overlap
     ethr =  5.70E-07,  avg # of iterations =  4.0

     negative rho (up, down):  2.004E-03 0.000E+00

     total cpu time spent up to now is        1.7 secs

     total energy              =     -34.66689845 Ry
     estimated scf accuracy    <       0.00037786 Ry

     iteration # 11     ecut=    40.00 Ry     beta= 0.30
     Davidson diagonalization with overlap
     ethr =  5.70E-07,  avg # of iterations =  2.0

     negative rho (up, down):  1.986E-03 0.000E+00

     total cpu time spent up to now is        1.8 secs

     total energy              =     -34.66687175 Ry
     estimated scf accuracy    <       0.00012499 Ry

     iteration # 12     ecut=    40.00 Ry     beta= 0.30
     Davidson diagonalization with overlap
     ethr =  5.70E-07,  avg # of iterations =  2.0

     negative rho (up, down):  1.985E-03 0.000E+00

     total cpu time spent up to now is        1.9 secs

     total energy              =     -34.66688046 Ry
     estimated scf accuracy    <       0.00001241 Ry

     iteration # 13     ecut=    40.00 Ry     beta= 0.30
     Davidson diagonalization with overlap
     ethr =  1.55E-07,  avg # of iterations =  2.0

     negative rho (up, down):  1.993E-03 0.000E+00

     total cpu time spent up to now is        2.0 secs

     total energy              =     -34.66688343 Ry
     estimated scf accuracy    <       0.00000005 Ry

     iteration # 14     ecut=    40.00 Ry     beta= 0.30
     Davidson diagonalization with overlap
     ethr =  6.18E-10,  avg # of iterations =  3.0

     negative rho (up, down):  1.996E-03 0.000E+00

     total cpu time spent up to now is        2.1 secs

     total energy              =     -34.66688337 Ry
     estimated scf accuracy    <       0.00000020 Ry

     iteration # 15     ecut=    40.00 Ry     beta= 0.30
     Davidson diagonalization with overlap
     ethr =  6.18E-10,  avg # of iterations =  3.0

     negative rho (up, down):  2.000E-03 0.000E+00

     total cpu time spent up to now is        2.2 secs

     total energy              =     -34.66688343 Ry
     estimated scf accuracy    <       0.00000002 Ry

     iteration # 16     ecut=    40.00 Ry     beta= 0.30
     Davidson diagonalization with overlap
     ethr =  2.09E-10,  avg # of iterations =  2.0

     negative rho (up, down):  2.009E-03 0.000E+00

     total cpu time spent up to now is        2.3 secs

     End of self-consistent calculation

          k = 0.0000 0.0000 0.0000 ( 14336 PWs)   bands (ev):

   -25.0899 -12.8546  -9.2498  -7.1128

     highest occupied level (ev):    -7.1128

!    total energy              =     -34.66688345 Ry
     estimated scf accuracy    <          3.5E-10 Ry

     The total energy is the sum of the following terms:
     one-electron contribution =     -63.19851675 Ry
     hartree contribution      =      33.10032657 Ry
     xc contribution           =      -8.68337975 Ry
     ewald contribution        =       4.11468647 Ry

     convergence has been achieved in  16 iterations

     negative rho (up, down):  2.009E-03 0.000E+00

     Forces acting on atoms (cartesian axes, Ry/au):

     atom    1 type  1   force =     0.00008123   -0.00948634    0.00562705
     atom    2 type  2   force =    -0.00009437    0.01078423   -0.00658767
     atom    3 type  2   force =     0.00001314   -0.00129788    0.00096062
     The non-local contrib.  to forces
     atom    1 type  1   force =    -0.01352355   -0.00190046   -2.18382875
     atom    2 type  2   force =     0.00186991   -0.19752782    0.14591459
     atom    3 type  2   force =    -0.00007071    0.19483607    0.14233281
     The ionic contribution  to forces
     atom    1 type  1   force =     0.02712372   -0.02258729    4.35908727
     atom    2 type  2   force =    -0.02827623    2.99532844   -2.19914757
     atom    3 type  2   force =     0.00115251   -2.97274116   -2.15993970
     The local contribution  to forces
     atom    1 type  1   force =    -0.01359103    0.01490823   -2.18127461
     atom    2 type  2   force =     0.02631172   -2.78701585    2.04665095
     atom    3 type  2   force =    -0.00106886    2.77660663    2.01857333
     The core correction contribution to forces
     atom    1 type  1   force =     0.00007156    0.00009019    0.01161862
     atom    2 type  2   force =     0.00000000    0.00000000    0.00000000
     atom    3 type  2   force =     0.00000000    0.00000000    0.00000000
     The Hubbard contrib.    to forces
     atom    1 type  1   force =     0.00000000    0.00000000    0.00000000
     atom    2 type  2   force =     0.00000000    0.00000000    0.00000000
     atom    3 type  2   force =     0.00000000    0.00000000    0.00000000
     The SCF correction term to forces
     atom    1 type  1   force =     0.00000035    0.00000298    0.00003240
     atom    2 type  2   force =     0.00000004   -0.00000057    0.00000224
     atom    3 type  2   force =     0.00000002    0.00000056    0.00000206

     Total force =     0.016852     Total SCF correction =     0.000033

     Writing all to output data dir output/opt.save/
 
     init_run     :      0.23s CPU      0.29s WALL (       1 calls)
     electrons    :      1.57s CPU      1.64s WALL (       1 calls)
     forces       :      0.07s CPU      0.08s WALL (       1 calls)

     Called by init_run:
     wfcinit      :      0.05s CPU      0.06s WALL (       1 calls)
     potinit      :      0.05s CPU      0.06s WALL (       1 calls)
     hinit0       :      0.03s CPU      0.06s WALL (       1 calls)

     Called by electrons:
     c_bands      :      0.09s CPU      0.11s WALL (      16 calls)
     sum_band     :      0.49s CPU      0.52s WALL (      16 calls)
     v_of_rho     :      0.46s CPU      0.46s WALL (      17 calls)
     newd         :      0.45s CPU      0.47s WALL (      17 calls)
     mix_rho      :      0.08s CPU      0.09s WALL (      16 calls)

     Called by c_bands:
     init_us_2    :      0.01s CPU      0.01s WALL (      33 calls)
     init_us_2:cp :      0.01s CPU      0.01s WALL (      33 calls)
     regterg      :      0.08s CPU      0.09s WALL (      16 calls)

     Called by *egterg:
     rdiaghg      :      0.00s CPU      0.01s WALL (      56 calls)
     h_psi        :      0.12s CPU      0.13s WALL (      57 calls)
     s_psi        :      0.00s CPU      0.00s WALL (      57 calls)
     g_psi        :      0.00s CPU      0.00s WALL (      40 calls)

     Called by h_psi:
     h_psi:calbec :      0.00s CPU      0.00s WALL (      57 calls)
     vloc_psi     :      0.11s CPU      0.12s WALL (      57 calls)
     add_vuspsi   :      0.00s CPU      0.00s WALL (      57 calls)

     General routines
     calbec       :      0.01s CPU      0.01s WALL (      77 calls)
     fft          :      0.37s CPU      0.40s WALL (     194 calls)
     ffts         :      0.01s CPU      0.01s WALL (      33 calls)
     fftw         :      0.10s CPU      0.10s WALL (     256 calls)
     interpolate  :      0.04s CPU      0.04s WALL (      17 calls)
 
     Parallel routines
 
     PWSCF        :      2.09s CPU      2.34s WALL

 
   This run was terminated on:  10:56: 3   4Jun2024            

=------------------------------------------------------------------------------=
   JOB DONE.
=------------------------------------------------------------------------------=
