    #         X           Y           Z       CHARGE      MIN DIST   ATOMIC VOL
 --------------------------------------------------------------------------------
    1    5.000000    5.000000    5.297610    7.186895     0.715568   561.807945
    2    5.000000    5.768360    4.702120    0.406564     0.099559   237.255102
    3    5.000000    4.231640    4.702120    0.406542     0.099559   200.936953
 --------------------------------------------------------------------------------
    VACUUM CHARGE:               0.0000
    VACUUM VOLUME:               0.0000
    NUMBER OF ELECTRONS:         8.0000
