SAC                                     
   1.00000000000000     
    10.000000    0.000000    0.000000
     0.000000   10.000000    0.000000
     0.000000    0.000000   10.000000
   O    H 
     1     2
Direct
  0.500000  0.500000  0.529761
  0.500000  0.576836  0.470212
  0.500000  0.423164  0.470212
 
  140  140  140
 -.78804930210E-05 -.80113499100E-05 -.82152033756E-05 -.81417407964E-05 -.76834943144E-05
 -.71120363164E-05 -.68035777306E-05 -.68597785677E-05 -.70210915031E-05 -.69238298920E-05
 -.64141770792E-05 -.56386559204E-05 -.49059958341E-05 -.44825181339E-05 -.44345881464E-05
 -.45366488449E-05 -.43098235284E-05 -.32869822351E-05 -.14324616772E-05 0.63478756627E-06
 0.19473067137E-05 0.19151519781E-05 0.87364073327E-06 -.87261952513E-07 0.74743693703E-07
 0.16071717175E-05 0.38821178341E-05 0.59497388751E-05 0.71574869545E-05 0.73737823017E-05
 0.68497378222E-05 0.60331834009E-05 0.54558724586E-05 0.55592951999E-05 0.64134830048E-05
 0.76031998273E-05 0.85571936899E-05 0.91368454700E-05 0.98741880043E-05 0.11485602167E-04
 0.14044038125E-04 0.16667679687E-04 0.18146874195E-04 0.17982687290E-04 0.16836533499E-04
 0.15946319723E-04 0.16071019411E-04 0.16959384534E-04 0.17769846587E-04 0.17948670256E-04
 0.17715481122E-04 0.17791488757E-04 0.18728951907E-04 0.20468698714E-04 0.22420436543E-04
 0.23892673949E-04 0.24508618641E-04 0.24377154122E-04 0.23984303344E-04 0.23894884332E-04
 0.24414718869E-04 0.25405627541E-04 0.26384848991E-04 0.26853128387E-04 0.26612203108E-04
 0.25831288019E-04 0.24877887107E-04 0.24046706535E-04 0.23465710818E-04 0.23141551603E-04
 0.23038630329E-04 0.23141551117E-04 0.23465710498E-04 0.24046706604E-04 0.24877887207E-04
 0.25831287985E-04 0.26612203077E-04 0.26853128549E-04 0.26384849030E-04 0.25405627434E-04
 0.24414718965E-04 0.23894884334E-04 0.23984303356E-04 0.24377154156E-04 0.24508618713E-04
 0.23892673989E-04 0.22420436539E-04 0.20468698782E-04 0.18728951990E-04 0.17791488771E-04
 0.17715481100E-04 0.17948670236E-04 0.17769846633E-04 0.16959384553E-04 0.16071019447E-04
 0.15946319698E-04 0.16836533354E-04 0.17982687277E-04 0.18146874159E-04 0.16667679725E-04
 0.14044038182E-04 0.11485602076E-04 0.98741880137E-05 0.91368454075E-05 0.85571936602E-05
 0.76031997568E-05 0.64134829309E-05 0.55592950739E-05 0.54558724302E-05 0.60331833684E-05
 0.68497377349E-05 0.73737821902E-05 0.71574868783E-05 0.59497388288E-05 0.38821177126E-05
 0.16071716066E-05 0.74743648573E-07 -.87261994456E-07 0.87364072312E-06 0.19151519171E-05
 0.19473066658E-05 0.63478759104E-06 -.14324618133E-05 -.32869824041E-05 -.43098235867E-05
 -.45366488751E-05 -.44345881511E-05 -.44825181865E-05 -.49059958346E-05 -.56386559532E-05
 -.64141771862E-05 -.69238299549E-05 -.70210915684E-05 -.68597785237E-05 -.68035777121E-05
 -.71120363379E-05 -.76834943879E-05 -.81417408204E-05 -.82152033694E-05 -.80113498570E-05
 -.77731841314E-05 -.78928836863E-05 -.80901682238E-05 -.80533187933E-05 -.76551837660E-05
 -.70997451663E-05 -.67320468207E-05 -.67133010815E-05 -.68748927266E-05 -.68706317400E-05
 -.64639541807E-05 -.57093411654E-05 -.49102968626E-05 -.44091994215E-05 -.43379098650E-05
 -.44751322098E-05 -.43273395296E-05 -.34533694956E-05 -.18488106460E-05 -.72095647956E-07
 0.10824714158E-05 0.11744292565E-05 0.49418594430E-06 -.12209489808E-06 0.10009111234E-06
 0.13497465229E-05 0.31914207137E-05 0.49458183417E-05 0.61061927866E-05 0.65030189351E-05
 0.62587060795E-05 0.57065570823E-05 0.53097157916E-05 0.54748255268E-05 0.62867435338E-05
 0.74118513994E-05 0.83769069982E-05 0.90419843381E-05 0.97902963039E-05 0.11156739578E-04
 0.13204576287E-04 0.15290854673E-04 0.16532910734E-04 0.16574499959E-04 0.15916254828E-04
 0.15478388819E-04 0.15815628819E-04 0.16718239699E-04 0.17528743689E-04 0.17809941799E-04
 0.17727461103E-04 0.17848955770E-04 0.18621528056E-04 0.20009246318E-04 0.21547949654E-04
 0.22693077964E-04 0.23164757411E-04 0.23076349421E-04 0.22821044635E-04 0.22815613014E-04
 0.23252843575E-04 0.23999487877E-04 0.24701464555E-04 0.25023427032E-04 0.24848679835E-04
 0.24312132725E-04 0.23650551426E-04 0.23068156861E-04 0.22653102216E-04 0.22410129543E-04
 0.22330652036E-04 0.22410129412E-04 0.22653102489E-04 0.23068156844E-04 0.23650551844E-04
 0.24312132926E-04 0.24848679828E-04 0.25023427204E-04 0.24701464539E-04 0.23999487782E-04
 0.23252843575E-04 0.22815612999E-04 0.22821044653E-04 0.23076349431E-04 0.23164757469E-04
 0.22693077999E-04 0.21547949645E-04 0.20009246375E-04 0.18621528135E-04 0.17848955782E-04
 0.17727461092E-04 0.17809941793E-04 0.17528743741E-04 0.16718239722E-04 0.15815628853E-04
 0.15478388801E-04 0.15916254685E-04 0.16574499943E-04 0.16532910702E-04 0.15290854705E-04
 0.13204576338E-04 0.11156739491E-04 0.97902963223E-05 0.90419842916E-05 0.83769069872E-05
 0.74118513525E-05 0.62867434706E-05 0.54748254248E-05 0.53097157727E-05 0.57065570708E-05
 0.62587060133E-05 0.65030188333E-05 0.61061927239E-05 0.49458183074E-05 0.31914205956E-05
 0.13497464274E-05 0.10009107655E-06 -.12209493024E-06 0.49418593357E-06 0.11744292075E-05
 0.10824713799E-05 -.72095609213E-07 -.18488107816E-05 -.34533696670E-05 -.43273395938E-05
 -.44751322420E-05 -.43379098644E-05 -.44091994667E-05 -.49102968741E-05 -.57093412037E-05
 -.64639542980E-05 -.68706318107E-05 -.68748927931E-05 -.67133010375E-05 -.67320467985E-05
 -.70997451935E-05 -.76551838356E-05 -.80533188164E-05 -.80901682170E-05 -.78928836066E-05
 -.76625345516E-05 -.77354268635E-05 -.78763706557E-05 -.79049056267E-05 -.76765119826E-05
 -.72226998934E-05 -.67698469635E-05 -.65695076546E-05 -.66540961932E-05 -.67522921820E-05
 -.65006449343E-05 -.57924865265E-05 -.49264460254E-05 -.43661781073E-05 -.43095877552E-05
 -.44776850440E-05 -.43446470494E-05 -.35984515899E-05 -.24050827109E-05 -.12482201339E-05
 -.52945005798E-06 -.29870402360E-06 -.30545143903E-06 -.23509001146E-06 0.11395382339E-06
 0.80831022330E-06 0.18135814601E-05 0.29883454459E-05 0.40756899695E-05 0.47980921685E-05
 0.50419812578E-05 0.49770784260E-05 0.49670107548E-05 0.53211186952E-05 0.60911484292E-05
 0.70823749451E-05 0.80465166226E-05 0.88767717251E-05 0.96459796389E-05 0.10489431617E-04
 0.11454435195E-04 0.12446467331E-04 0.13301684852E-04 0.13921293500E-04 0.14357597861E-04
 0.14783176456E-04 0.15357454536E-04 0.16096532175E-04 0.16858492179E-04 0.17469958750E-04
 0.17883745521E-04 0.18220152591E-04 0.18644425614E-04 0.19200781226E-04 0.19770182003E-04
 0.20200230461E-04 0.20472534475E-04 0.20733787619E-04 0.21152355715E-04 0.21744124790E-04
 0.22337199130E-04 0.22706056569E-04 0.22742303028E-04 0.22511797212E-04 0.22173223538E-04
 0.21847430535E-04 0.21576761687E-04 0.21335254405E-04 0.21113294634E-04 0.20947738174E-04
 0.20885017364E-04 0.20947738581E-04 0.21113294428E-04 0.21335254715E-04 0.21576761731E-04
 0.21847430497E-04 0.22173223492E-04 0.22511797523E-04 0.22742303089E-04 0.22706056476E-04
 0.22337199152E-04 0.21744124821E-04 0.21152355769E-04 0.20733787649E-04 0.20472534519E-04
 0.20200230502E-04 0.19770181989E-04 0.19200781279E-04 0.18644425697E-04 0.18220152590E-04
 0.17883745523E-04 0.17469958751E-04 0.16858492236E-04 0.16096532195E-04 0.15357454570E-04
 0.14783176447E-04 0.14357597723E-04 0.13921293484E-04 0.13301684822E-04 0.12446467355E-04
 0.11454435239E-04 0.10489431536E-04 0.96459796681E-05 0.88767716955E-05 0.80465166284E-05
 0.70823749230E-05 0.60911483780E-05 0.53211186205E-05 0.49670107464E-05 0.49770784366E-05
 0.50419812093E-05 0.47980920793E-05 0.40756899188E-05 0.29883454219E-05 0.18135813498E-05
 0.80831014723E-06 0.11395379955E-06 -.23509003203E-06 -.30545145080E-06 -.29870405885E-06
 -.52945008285E-06 -.12482200788E-05 -.24050828411E-05 -.35984517564E-05 -.43446471118E-05
 -.44776850781E-05 -.43095877504E-05 -.43661781431E-05 -.49264460468E-05 -.57924865672E-05
 -.65006450598E-05 -.67522922592E-05 -.66540962595E-05 -.65695076136E-05 -.67698469372E-05
 -.72226999264E-05 -.76765120516E-05 -.79049056464E-05 -.78763706456E-05 -.77354267606E-05
 -.78806839144E-05 -.78663482710E-05 -.78653108840E-05 -.79098996292E-05 -.78978129720E-05
 -.76745632725E-05 -.72562768307E-05 -.68758920478E-05 -.67196945145E-05 -.66577602500E-05
 -.63494981284E-05 -.56663852698E-05 -.49238607612E-05 -.45806929409E-05 -.46951656171E-05
