
     Program PWSCF v.7.3.1 starts on 30May2024 at  4:37:24 

     This program is part of the open-source Quantum ESPRESSO suite
     for quantum simulation of materials; please cite
         "P. Giannozzi et al., J. Phys.:Condens. Matter 21 395502 (2009);
         "P. Giannozzi et al., J. Phys.:Condens. Matter 29 465901 (2017);
         "P. Giannozzi et al., J. Chem. Phys. 152 154105 (2020);
          URL http://www.quantum-espresso.org", 
     in publications or presentations arising from this work. More details at
     http://www.quantum-espresso.org/quote

     Parallel version (MPI), running on    64 processors

     MPI processes distributed on     1 nodes
     241503 MiB available memory on the printing compute node when the environment starts
 
     Reading input from espresso.pwi

     Current dimensions of program PWSCF are:
     Max number of different atomic species (ntypx) = 10
     Max number of k-points (npk) =  40000
     Max angular momentum in pseudopotentials (lmaxx) =  4
     Message from routine iosys_1drism:
     default density from MOL file(H2O.tip5p.Nishihara.MOL) is used

     gamma-point specific algorithms are used
 
     R & G space division:  proc/nbgrp/npool/nimage =      64
     Subspace diagonalization in iterative solution of the eigenvalue problem:
     a serial algorithm will be used


     Molecule # 1 for H2O read from file:
     ../../pseudo/H2O.tip5p.Nishihara.MOL
     Density:
         0.26741624E+03 cell^-1
         0.49533751E-02 bohr^-3
         0.55506881E+02 mol/L
         0.99997200E+00 g/cm^3
     Permittivity:
        78.500000
     Number of atoms:   5
     Atoms:
       #  atom      X (angs)      Y (angs)      Z (angs)      Q (e)         E (kcal/mol)  S (angs)
       1  O/h2o     0.00000000   -0.06556000    0.00000000    0.00000000    0.16000000    3.12000000
       2  H/h2o     0.75695000    0.52032000    0.00000000    0.24100000    0.04600000    1.00000000
       3  H/h2o    -0.75695000    0.52032000    0.00000000    0.24100000    0.04600000    1.00000000
       4  L/h2o     0.00000000   -0.46971000    0.57154000   -0.24100000    0.04600000    1.80000000
       5  L/h2o     0.00000000   -0.46971000   -0.57154000   -0.24100000    0.04600000    1.80000000


     Molecule # 2 for K+ read from file:
     ../../pseudo/K+.Hagiwara.MOL
     Density:
         0.48177133E+01 cell^-1
         0.89238937E-04 bohr^-3
         0.10000000E+01 mol/L
         0.39098300E-01 g/cm^3
     Number of atoms:   1
     Atoms:
       #  atom      X (angs)      Y (angs)      Z (angs)      Q (e)         E (kcal/mol)  S (angs)
       1  K         0.00000000    0.00000000    0.00000000    1.00000000    0.00032800    4.93462800


     Molecule # 3 for OH- read from file:
     ../../pseudo/OH-.oplsaa.MOL
     Density:
         0.48177133E+01 cell^-1
         0.89238937E-04 bohr^-3
         0.10000000E+01 mol/L
         0.17007340E-01 g/cm^3
     Number of atoms:   2
     Atoms:
       #  atom      X (angs)      Y (angs)      Z (angs)      Q (e)         E (kcal/mol)  S (angs)
       1  O/oh      0.00000000    0.00000000    0.00000000   -1.30000000    0.25000000    3.20000000
       2  H/oh      0.95300000    0.00000000    0.00000000    0.30000000    0.04600000    1.00000000


     1D-RISM info
     ------------
     closure equation        =           KH
     temperature             =     300.0000  kelvin
     coulomb smearing radius =       2.0000  bohr
     number of solvent sites =            8
     number of grids         =         5973
     maximum of R-space      =     999.8326  bohr
     maximum of G-space      =      18.7632  bohr^-1
     number of iterations    =        15000
     convergence threshold   =      1.0E-08
     Gaussian width of bonds =       0.3162  bohr
     size of MDIIS           =           20
     step of MDIIS           =       0.2000
     number of processes     =           64


     1D-RISM Calculation

     iter. #     1  RMS(g-h-1)= 7.798E-04  nbox=  0  T= 2400.00K
     iter. #   101  RMS(g-h-1)= 1.222E-06  nbox= 20  T= 1600.00K
     iter. #   201  RMS(g-h-1)= 3.438E-06  nbox= 20  T=  711.11K
     iter. #   301  RMS(g-h-1)= 2.056E-06  nbox= 20  T=  474.07K
     iter. #   401  RMS(g-h-1)= 1.763E-06  nbox= 20  T=  316.05K
     iter. #   501  RMS(g-h-1)= 4.727E-07  nbox= 20  T=  300.00K
     iter. #   601  RMS(g-h-1)= 1.645E-07  nbox= 20  T=  300.00K
     iter. #   701  RMS(g-h-1)= 1.081E-07  nbox= 20  T=  300.00K
     iter. #   801  RMS(g-h-1)= 8.835E-08  nbox= 20  T=  300.00K
     iter. #   901  RMS(g-h-1)= 6.970E-08  nbox= 20  T=  300.00K
     iter. #  1001  RMS(g-h-1)= 6.055E-08  nbox= 20  T=  300.00K
     iter. #  1101  RMS(g-h-1)= 5.293E-08  nbox= 20  T=  300.00K
     iter. #  1201  RMS(g-h-1)= 4.761E-08  nbox= 20  T=  300.00K
     iter. #  1301  RMS(g-h-1)= 4.352E-08  nbox= 20  T=  300.00K
     iter. #  1401  RMS(g-h-1)= 3.851E-08  nbox= 20  T=  300.00K
     iter. #  1501  RMS(g-h-1)= 3.419E-08  nbox= 20  T=  300.00K
     iter. #  1601  RMS(g-h-1)= 3.267E-08  nbox= 20  T=  300.00K
     iter. #  1701  RMS(g-h-1)= 3.106E-08  nbox= 20  T=  300.00K
     iter. #  1801  RMS(g-h-1)= 3.048E-08  nbox= 20  T=  300.00K
     iter. #  1901  RMS(g-h-1)= 3.489E-08  nbox= 20  T=  300.00K
     iter. #  2001  RMS(g-h-1)= 2.958E-08  nbox= 20  T=  300.00K
     iter. #  2101  RMS(g-h-1)= 2.944E-08  nbox= 20  T=  300.00K
     iter. #  2201  RMS(g-h-1)= 2.907E-08  nbox= 20  T=  300.00K
     iter. #  2301  RMS(g-h-1)= 2.885E-08  nbox= 20  T=  300.00K
     iter. #  2401  RMS(g-h-1)= 2.669E-08  nbox= 20  T=  300.00K
     iter. #  2501  RMS(g-h-1)= 2.543E-08  nbox= 20  T=  300.00K
     iter. #  2601  RMS(g-h-1)= 2.527E-08  nbox= 20  T=  300.00K
     iter. #  2701  RMS(g-h-1)= 2.375E-08  nbox= 20  T=  300.00K
     iter. #  2801  RMS(g-h-1)= 2.284E-08  nbox= 20  T=  300.00K
     iter. #  2901  RMS(g-h-1)= 2.201E-08  nbox= 20  T=  300.00K
     iter. #  3001  RMS(g-h-1)= 2.062E-08  nbox= 20  T=  300.00K
     iter. #  3101  RMS(g-h-1)= 1.942E-08  nbox= 20  T=  300.00K
     iter. #  3201  RMS(g-h-1)= 1.805E-08  nbox= 20  T=  300.00K
     iter. #  3301  RMS(g-h-1)= 1.705E-08  nbox= 20  T=  300.00K
     iter. #  3401  RMS(g-h-1)= 1.618E-08  nbox= 20  T=  300.00K
     iter. #  3501  RMS(g-h-1)= 1.528E-08  nbox= 20  T=  300.00K
     iter. #  3601  RMS(g-h-1)= 1.447E-08  nbox= 20  T=  300.00K
     iter. #  3701  RMS(g-h-1)= 1.382E-08  nbox= 20  T=  300.00K
     iter. #  3801  RMS(g-h-1)= 1.322E-08  nbox= 20  T=  300.00K
     iter. #  3901  RMS(g-h-1)= 1.258E-08  nbox= 20  T=  300.00K
     iter. #  4001  RMS(g-h-1)= 1.198E-08  nbox= 20  T=  300.00K
     iter. #  4101  RMS(g-h-1)= 1.140E-08  nbox= 20  T=  300.00K
     iter. #  4201  RMS(g-h-1)= 1.082E-08  nbox= 20  T=  300.00K
     iter. #  4301  RMS(g-h-1)= 1.035E-08  nbox= 20  T=  300.00K
     iter. #  4370  RMS(g-h-1)= 1.000E-08  nbox= 20  T=  300.00K

     End of 1D-RISM calculation


     convergence has been achieved in  4370 iterations


     Chemical potential of solvation

     H2O        H2O        Closure      0.144050E+01 kcal/mol
                           GaussFluct  -0.702204E+01 kcal/mol

                K+         Closure     -0.280552E+00 kcal/mol
                           GaussFluct  -0.350091E+00 kcal/mol

                OH-        Closure     -0.749912E+00 kcal/mol
                           GaussFluct  -0.841451E+00 kcal/mol

                Total      Closure      0.410036E+00 kcal/mol
                           GaussFluct  -0.821359E+01 kcal/mol

     K+         H2O        Closure     -0.155726E+02 kcal/mol
                           GaussFluct  -0.194325E+02 kcal/mol

                K+         Closure      0.351545E+06 kcal/mol
                           GaussFluct   0.351545E+06 kcal/mol

                OH-        Closure     -0.351595E+06 kcal/mol
                           GaussFluct  -0.351595E+06 kcal/mol

                Total      Closure     -0.662658E+02 kcal/mol
                           GaussFluct  -0.701837E+02 kcal/mol

     OH-        H2O        Closure     -0.416252E+02 kcal/mol
                           GaussFluct  -0.467063E+02 kcal/mol

                K+         Closure     -0.351595E+06 kcal/mol
                           GaussFluct  -0.351595E+06 kcal/mol

                OH-        Closure      0.351544E+06 kcal/mol
                           GaussFluct   0.351544E+06 kcal/mol

                Total      Closure     -0.925524E+02 kcal/mol
                           GaussFluct  -0.977560E+02 kcal/mol

 
     Parallelization info
     --------------------
     sticks:   dense  smooth     PW     G-vecs:    dense   smooth      PW
     Min         567     284     69                81548    28832    3594
     Max         570     286     72                81558    28844    3612
     Sum       36381   18197   4537              5219483  1845573  230389
 
     Using Slab Decomposition
 


     bravais-lattice index     =            0
     lattice parameter (alat)  =      37.7945  a.u.
     unit-cell volume          =   53986.6731 (a.u.)^3
     number of atoms/cell      =            4
     number of atomic types    =            2
     number of electrons       =         8.00
     number of Kohn-Sham states=            8
     kinetic-energy cutoff     =      40.0000  Ry
     charge density cutoff     =     320.0000  Ry
     scf convergence threshold =      1.0E-08
     mixing beta               =       0.1000
     number of iterations used =            8  plain     mixing
     Exchange-correlation=  SLA  PW   PBX  PBC
                           (   1   4   3   4   0   0   0)

     Effective Screening Medium Method
     =================================
     Boundary Conditions: Vacuum-Slab-Vacuum
     total charge in unit cell        =   1.0000
     grid points for fit at edges     =        4 
 

     celldm(1)=  37.794522  celldm(2)=   0.000000  celldm(3)=   0.000000
     celldm(4)=   0.000000  celldm(5)=   0.000000  celldm(6)=   0.000000

     crystal axes: (cart. coord. in units of alat)
               a(1) = (   1.000000   0.000000   0.000000 )  
               a(2) = (   0.000000   1.000000   0.000000 )  
               a(3) = (   0.000000   0.000000   1.000000 )  

     reciprocal axes: (cart. coord. in units 2 pi/alat)
               b(1) = (  1.000000  0.000000  0.000000 )  
               b(2) = (  0.000000  1.000000  0.000000 )  
               b(3) = (  0.000000  0.000000  1.000000 )  


     PseudoPot. # 1 for O  read from file:
     ../../pseudo/o_pbe_v1.2.uspp.F.UPF
     MD5 check sum: 734c27235a0248c51dbae37a1fbe46ec
     Pseudo is Ultrasoft + core correction, Zval =  6.0
     Generated by new atomic code, or converted to UPF format
     Using radial grid of  737 points,  5 beta functions with: 
                l(1) =   0
                l(2) =   0
                l(3) =   1
                l(4) =   1
                l(5) =   2
     Q(r) pseudized with  8 coefficients,  rinner =    0.900   0.900   0.900
                                                       0.900   0.900

     PseudoPot. # 2 for H  read from file:
     ../../pseudo/h_pbe_v1.4.uspp.F.UPF
     MD5 check sum: 761ae9a214b05c3daf00ab9f6b793d6f
     Pseudo is Ultrasoft, Zval =  1.0
     Generated by new atomic code, or converted to UPF format
     Using radial grid of  615 points,  2 beta functions with: 
                l(1) =   0
                l(2) =   0
     Q(r) pseudized with  8 coefficients,  rinner =    0.700

     atomic species   valence    mass     pseudopotential
     O                 6.00    15.99900     O ( 1.00)
     H                 1.00     1.00800     H ( 1.00)

     No symmetry found



   Cartesian axes

     site n.     atom                  positions (alat units)
         1        O      tau(   1) = (   0.0167622  -0.0015487  -0.0000006  )
         2        H      tau(   2) = (   0.0218434   0.0278652   0.0406100  )
         3        H      tau(   3) = (   0.0218432   0.0278646  -0.0406092  )
         4        H      tau(   4) = (  -0.0304489  -0.0191811   0.0005002  )

     number of k points=     1  Gaussian smearing, width (Ry)=  0.0100
                       cart. coord. in units 2pi/alat
        k(    1) = (   0.0000000   0.0000000   0.0000000), wk =   2.0000000

     Dense  grid:  2609742 G-vectors     FFT dimensions: ( 216, 216, 216)

     Smooth grid:   922787 G-vectors     FFT dimensions: ( 160, 160, 160)

     Estimated max dynamical RAM per process >     104.23 MB

     Estimated total dynamical RAM >       6.51 GB

     Solute:
       # atom     E (kcal/mol)  S (angs)
       1  O       0.15540000    3.16600000    given
       2  H       0.04600000    1.00000000    given
       3  H       0.04600000    1.00000000    given
       4  H       0.04600000    1.00000000    given


     Laue-RISM info
     --------------
     closure equation        =           KH
     temperature             =     300.0000  kelvin
     coulomb smearing radius =       2.0000  bohr
     number of solvent sites =            6
     solvent sites           =    O/h2o   H/h2o   L/h2o       K
     solvent sites           =     O/oh    H/oh
     number of iterations    =        15000
     convergence threshold   =      1.0E-06
     convergence level       =       0.8000
     size of MDIIS           =           20
     step of MDIIS           =       0.1000
     solvent cutoff          =     160.0000  Ry
     Custom grid:   922787 G-vectors     FFT dimensions: ( 160, 160, 160)

     Boundary Conditions        : Solvent-Slab-Solvent
     unit-cell (in bohr)        : [ -18.897261  18.897261]
     expand-cell (in bohr)      : [ -79.840927  79.604712]
     solvent of left (in bohr)  : [ -79.840927   0.000000]
     solvent of right (in bohr) : [   0.000000  79.604712]
     reference of potential     : average of both sides
     #grids to fit at edges of unit-cell =    4
     Laue grid:     9099 Gxy-vectors     FFT dimensions: ( 160, 160, 675)


     Initial potential from superposition of free atoms

     starting charge       9.0000, renormalised to       8.0000

     negative rho (up, down):  7.465E-04 0.000E+00

     Laue-RISM Calculation

     convergence threshold    = 6.310E-06
     iter. #     1  RMS(g-h-1)= 1.089E-01  nbox=  0
     iter. #    11  RMS(g-h-1)= 1.051E-02  nbox= 10
     iter. #    21  RMS(g-h-1)= 5.608E-03  nbox= 20
     iter. #    31  RMS(g-h-1)= 2.015E-03  nbox= 20
     iter. #    41  RMS(g-h-1)= 1.269E-03  nbox= 20
     iter. #    51  RMS(g-h-1)= 8.236E-04  nbox= 20
     iter. #    61  RMS(g-h-1)= 6.205E-04  nbox= 20
     iter. #    71  RMS(g-h-1)= 5.206E-04  nbox= 20
     iter. #    81  RMS(g-h-1)= 4.658E-04  nbox= 20
     iter. #    91  RMS(g-h-1)= 3.896E-04  nbox= 20
     iter. #   101  RMS(g-h-1)= 3.017E-04  nbox= 20
     iter. #   111  RMS(g-h-1)= 2.509E-04  nbox= 20
     iter. #   121  RMS(g-h-1)= 2.213E-04  nbox= 20
     iter. #   131  RMS(g-h-1)= 1.788E-04  nbox=  9
     iter. #   141  RMS(g-h-1)= 1.145E-04  nbox= 19
     iter. #   151  RMS(g-h-1)= 7.436E-05  nbox= 20
     iter. #   161  RMS(g-h-1)= 4.826E-05  nbox= 20
     iter. #   171  RMS(g-h-1)= 3.462E-05  nbox= 20
     iter. #   181  RMS(g-h-1)= 2.581E-05  nbox= 20
     iter. #   191  RMS(g-h-1)= 2.377E-05  nbox= 20
     iter. #   201  RMS(g-h-1)= 1.955E-05  nbox= 20
     iter. #   211  RMS(g-h-1)= 1.598E-05  nbox= 20
     iter. #   221  RMS(g-h-1)= 1.359E-05  nbox= 20
     iter. #   231  RMS(g-h-1)= 1.120E-05  nbox=  8
     iter. #   241  RMS(g-h-1)= 9.762E-06  nbox=  2
     iter. #   251  RMS(g-h-1)= 8.367E-06  nbox= 12
     iter. #   261  RMS(g-h-1)= 7.558E-06  nbox=  6
     iter. #   271  RMS(g-h-1)= 6.864E-06  nbox= 16
     iter. #   281  RMS(g-h-1)= 6.312E-06  nbox= 10
     iter. #   282  RMS(g-h-1)= 6.282E-06  nbox= 11

     End of Laue-RISM calculation


     convergence has been achieved in   282 iterations


     solvent charge   -1.00121, renormalised to   -1.00000

     Total number of solvent (in expand-cell)
     H2O         1129.255098
     K+            20.052823
     OH-           21.053612

     Total charge of solvent (in expand-cell)
     H2O           -0.000509 e
     K+            20.052823 e
     OH-          -21.053527 e
     Total         -1.001213 e

     Chemical potential of solvation (in expand-cell)
     H2O        GaussFluct  -0.371709E+02 kcal/mol
     K+         GaussFluct  -0.224088E+04 kcal/mol
     OH-        GaussFluct   0.222387E+04 kcal/mol
     Total      GaussFluct  -0.541773E+02 kcal/mol

     Starting wfcs are    7 randomized atomic wfcs +    1 random wfcs

     total cpu time spent up to now is      294.7 secs

     Self-consistent Calculation

     iteration #  1     ecut=    40.00 Ry     beta= 0.10
     Davidson diagonalization with overlap
     ethr =  1.00E-02,  avg # of iterations =  5.0

     negative rho (up, down):  1.158E-03 0.000E+00

     Laue-RISM Calculation

     convergence threshold    = 6.310E-06
     iter. #     1  RMS(g-h-1)= 5.665E-03  nbox=  0
     iter. #    11  RMS(g-h-1)= 7.321E-04  nbox= 10
     iter. #    21  RMS(g-h-1)= 2.722E-04  nbox= 20
     iter. #    31  RMS(g-h-1)= 1.655E-04  nbox= 20
     iter. #    41  RMS(g-h-1)= 1.042E-04  nbox= 20
     iter. #    51  RMS(g-h-1)= 9.586E-05  nbox= 20
     iter. #    61  RMS(g-h-1)= 8.959E-05  nbox=  5
     iter. #    71  RMS(g-h-1)= 5.700E-05  nbox= 15
     iter. #    81  RMS(g-h-1)= 4.128E-05  nbox= 20
     iter. #    91  RMS(g-h-1)= 2.957E-05  nbox= 20
     iter. #   101  RMS(g-h-1)= 1.971E-05  nbox= 20
     iter. #   111  RMS(g-h-1)= 1.338E-05  nbox= 20
     iter. #   121  RMS(g-h-1)= 1.123E-05  nbox= 20
     iter. #   131  RMS(g-h-1)= 9.675E-06  nbox= 20
     iter. #   141  RMS(g-h-1)= 8.082E-06  nbox= 20
     iter. #   151  RMS(g-h-1)= 7.233E-06  nbox=  4
     iter. #   161  RMS(g-h-1)= 6.532E-06  nbox= 14
     iter. #   163  RMS(g-h-1)= 6.175E-06  nbox= 16

     End of Laue-RISM calculation


     convergence has been achieved in   163 iterations


     solvent charge   -1.00242, renormalised to   -1.00000

     Total number of solvent (in expand-cell)
     H2O         1129.260772
     K+            20.054536
     OH-           21.055658

     Total charge of solvent (in expand-cell)
     H2O           -0.000462 e
     K+            20.054536 e
     OH-          -21.056496 e
     Total         -1.002422 e

     Chemical potential of solvation (in expand-cell)
     H2O        GaussFluct  -0.373872E+02 kcal/mol
     K+         GaussFluct  -0.224091E+04 kcal/mol
     OH-        GaussFluct   0.222372E+04 kcal/mol
     Total      GaussFluct  -0.545862E+02 kcal/mol


     total cpu time spent up to now is      394.8 secs

     total energy              =     -35.96419364 Ry
     estimated scf accuracy    <       2.24473918 Ry

     iteration #  2     ecut=    40.00 Ry     beta= 0.10
     Davidson diagonalization with overlap
     ethr =  1.00E-02,  avg # of iterations =  1.0

     negative rho (up, down):  4.126E-03 0.000E+00

     Laue-RISM Calculation

     convergence threshold    = 6.310E-06
     iter. #     1  RMS(g-h-1)= 2.052E-02  nbox=  0
     iter. #    11  RMS(g-h-1)= 2.933E-03  nbox= 10
     iter. #    21  RMS(g-h-1)= 1.433E-03  nbox= 20
     iter. #    31  RMS(g-h-1)= 7.289E-04  nbox= 20
     iter. #    41  RMS(g-h-1)= 5.024E-04  nbox= 20
     iter. #    51  RMS(g-h-1)= 3.762E-04  nbox= 20
     iter. #    61  RMS(g-h-1)= 3.437E-04  nbox= 20
     iter. #    71  RMS(g-h-1)= 3.036E-04  nbox=  6
     iter. #    81  RMS(g-h-1)= 2.361E-04  nbox= 16
     iter. #    91  RMS(g-h-1)= 1.715E-04  nbox= 20
     iter. #   101  RMS(g-h-1)= 1.142E-04  nbox= 20
     iter. #   111  RMS(g-h-1)= 8.457E-05  nbox= 20
     iter. #   121  RMS(g-h-1)= 7.309E-05  nbox= 20
     iter. #   131  RMS(g-h-1)= 5.690E-05  nbox=  8
     iter. #   141  RMS(g-h-1)= 3.278E-05  nbox= 18
     iter. #   151  RMS(g-h-1)= 2.242E-05  nbox= 20
     iter. #   161  RMS(g-h-1)= 1.876E-05  nbox= 20
     iter. #   171  RMS(g-h-1)= 1.596E-05  nbox= 20
     iter. #   181  RMS(g-h-1)= 1.428E-05  nbox= 20
     iter. #   191  RMS(g-h-1)= 1.191E-05  nbox=  9
     iter. #   201  RMS(g-h-1)= 1.015E-05  nbox=  3
     iter. #   211  RMS(g-h-1)= 8.240E-06  nbox= 13
     iter. #   221  RMS(g-h-1)= 6.965E-06  nbox=  7
     iter. #   231  RMS(g-h-1)= 6.349E-06  nbox= 17
     iter. #   233  RMS(g-h-1)= 6.289E-06  nbox=  3

     End of Laue-RISM calculation


     convergence has been achieved in   233 iterations


     solvent charge   -1.00031, renormalised to   -1.00000

     Total number of solvent (in expand-cell)
     H2O         1129.398232
     K+            20.066007
     OH-           21.065449

     Total charge of solvent (in expand-cell)
     H2O           -0.000346 e
     K+            20.066007 e
     OH-          -21.065974 e
     Total         -1.000314 e

     Chemical potential of solvation (in expand-cell)
     H2O        GaussFluct  -0.393224E+02 kcal/mol
     K+         GaussFluct  -0.224104E+04 kcal/mol
     OH-        GaussFluct   0.222199E+04 kcal/mol
     Total      GaussFluct  -0.583738E+02 kcal/mol


     total cpu time spent up to now is      535.5 secs

     total energy              =     -35.20557205 Ry
     estimated scf accuracy    <       1.38265180 Ry

     iteration #  3     ecut=    40.00 Ry     beta= 0.10
     Davidson diagonalization with overlap
     ethr =  1.00E-02,  avg # of iterations =  2.0

     negative rho (up, down):  3.883E-03 0.000E+00

     Laue-RISM Calculation

     convergence threshold    = 6.310E-06
     iter. #     1  RMS(g-h-1)= 5.057E-03  nbox=  0
     iter. #    11  RMS(g-h-1)= 5.711E-04  nbox= 10
     iter. #    21  RMS(g-h-1)= 2.381E-04  nbox= 20
     iter. #    31  RMS(g-h-1)= 1.245E-04  nbox= 20
     iter. #    41  RMS(g-h-1)= 8.321E-05  nbox= 20
     iter. #    51  RMS(g-h-1)= 7.370E-05  nbox= 20
     iter. #    61  RMS(g-h-1)= 6.347E-05  nbox=  5
     iter. #    71  RMS(g-h-1)= 4.592E-05  nbox= 15
     iter. #    81  RMS(g-h-1)= 2.819E-05  nbox= 20
     iter. #    91  RMS(g-h-1)= 2.132E-05  nbox= 20
     iter. #   101  RMS(g-h-1)= 1.904E-05  nbox= 20
     iter. #   111  RMS(g-h-1)= 1.407E-05  nbox= 20
     iter. #   121  RMS(g-h-1)= 1.125E-05  nbox= 20
     iter. #   131  RMS(g-h-1)= 9.024E-06  nbox= 20
     iter. #   141  RMS(g-h-1)= 7.607E-06  nbox= 20
     iter. #   150  RMS(g-h-1)= 6.140E-06  nbox= 20

     End of Laue-RISM calculation


     convergence has been achieved in   150 iterations


     solvent charge   -0.99983, renormalised to   -1.00000

     Total number of solvent (in expand-cell)
     H2O         1129.316340
     K+            20.067286
     OH-           21.066942

     Total charge of solvent (in expand-cell)
     H2O           -0.000499 e
     K+            20.067286 e
     OH-          -21.066620 e
     Total         -0.999833 e

     Chemical potential of solvation (in expand-cell)
     H2O        GaussFluct  -0.383303E+02 kcal/mol
     K+         GaussFluct  -0.224105E+04 kcal/mol
     OH-        GaussFluct   0.222235E+04 kcal/mol
     Total      GaussFluct  -0.570311E+02 kcal/mol


     total cpu time spent up to now is      629.0 secs

     total energy              =     -35.50868413 Ry
     estimated scf accuracy    <       0.07063936 Ry

     iteration #  4     ecut=    40.00 Ry     beta= 0.10
     Davidson diagonalization with overlap
     ethr =  8.83E-04,  avg # of iterations =  2.0

     negative rho (up, down):  8.539E-03 0.000E+00

     Laue-RISM Calculation

     convergence threshold    = 6.310E-06
     iter. #     1  RMS(g-h-1)= 8.822E-03  nbox=  0
     iter. #    11  RMS(g-h-1)= 1.429E-03  nbox= 10
     iter. #    21  RMS(g-h-1)= 5.813E-04  nbox= 20
     iter. #    31  RMS(g-h-1)= 3.615E-04  nbox= 20
     iter. #    41  RMS(g-h-1)= 2.460E-04  nbox= 20
     iter. #    51  RMS(g-h-1)= 1.943E-04  nbox= 20
     iter. #    61  RMS(g-h-1)= 1.751E-04  nbox= 20
     iter. #    71  RMS(g-h-1)= 1.468E-04  nbox=  5
     iter. #    81  RMS(g-h-1)= 9.659E-05  nbox= 15
     iter. #    91  RMS(g-h-1)= 6.744E-05  nbox= 20
     iter. #   101  RMS(g-h-1)= 4.466E-05  nbox= 20
     iter. #   111  RMS(g-h-1)= 3.255E-05  nbox= 20
     iter. #   121  RMS(g-h-1)= 2.878E-05  nbox= 20
     iter. #   131  RMS(g-h-1)= 2.167E-05  nbox= 20
     iter. #   141  RMS(g-h-1)= 1.629E-05  nbox= 20
     iter. #   151  RMS(g-h-1)= 1.476E-05  nbox= 20
     iter. #   161  RMS(g-h-1)= 1.242E-05  nbox=  6
     iter. #   171  RMS(g-h-1)= 9.255E-06  nbox= 16
     iter. #   181  RMS(g-h-1)= 7.683E-06  nbox= 10
     iter. #   191  RMS(g-h-1)= 6.458E-06  nbox=  4
     iter. #   194  RMS(g-h-1)= 6.275E-06  nbox=  7

     End of Laue-RISM calculation


     convergence has been achieved in   194 iterations


     solvent charge   -1.00190, renormalised to   -1.00000

     Total number of solvent (in expand-cell)
     H2O         1129.411998
     K+            20.082778
     OH-           21.083207

     Total charge of solvent (in expand-cell)
     H2O           -0.000402 e
     K+            20.082778 e
     OH-          -21.084273 e
     Total         -1.001897 e

     Chemical potential of solvation (in expand-cell)
     H2O        GaussFluct  -0.393781E+02 kcal/mol
     K+         GaussFluct  -0.224115E+04 kcal/mol
     OH-        GaussFluct   0.222086E+04 kcal/mol
     Total      GaussFluct  -0.596701E+02 kcal/mol


     total cpu time spent up to now is      748.3 secs

     total energy              =     -35.49151889 Ry
     estimated scf accuracy    <       0.13588083 Ry

     iteration #  5     ecut=    40.00 Ry     beta= 0.10
     Davidson diagonalization with overlap
     ethr =  8.83E-04,  avg # of iterations =  8.0

     negative rho (up, down):  8.319E-03 0.000E+00

     Laue-RISM Calculation

     convergence threshold    = 4.208E-06
     iter. #     1  RMS(g-h-1)= 1.693E-03  nbox=  0
     iter. #    11  RMS(g-h-1)= 2.079E-04  nbox= 10
     iter. #    21  RMS(g-h-1)= 8.041E-05  nbox= 20
     iter. #    31  RMS(g-h-1)= 5.174E-05  nbox= 20
     iter. #    41  RMS(g-h-1)= 3.360E-05  nbox= 20
     iter. #    51  RMS(g-h-1)= 2.838E-05  nbox= 20
     iter. #    61  RMS(g-h-1)= 2.595E-05  nbox= 20
     iter. #    71  RMS(g-h-1)= 2.165E-05  nbox= 11
     iter. #    81  RMS(g-h-1)= 1.292E-05  nbox= 20
     iter. #    91  RMS(g-h-1)= 7.825E-06  nbox= 20
     iter. #   101  RMS(g-h-1)= 6.344E-06  nbox= 20
     iter. #   111  RMS(g-h-1)= 5.900E-06  nbox= 20
     iter. #   121  RMS(g-h-1)= 5.250E-06  nbox= 11
     iter. #   131  RMS(g-h-1)= 4.709E-06  nbox=  5
     iter. #   141  RMS(g-h-1)= 4.479E-06  nbox= 15
     iter. #   151  RMS(g-h-1)= 4.233E-06  nbox=  9
     iter. #   152  RMS(g-h-1)= 4.186E-06  nbox= 10

     End of Laue-RISM calculation


     convergence has been achieved in   152 iterations


     solvent charge   -1.00039, renormalised to   -1.00000

     Total number of solvent (in expand-cell)
     H2O         1129.448551
     K+            20.084907
     OH-           21.084957

     Total charge of solvent (in expand-cell)
     H2O           -0.000362 e
     K+            20.084907 e
     OH-          -21.084939 e
     Total         -1.000394 e

     Chemical potential of solvation (in expand-cell)
     H2O        GaussFluct  -0.397830E+02 kcal/mol
     K+         GaussFluct  -0.224116E+04 kcal/mol
     OH-        GaussFluct   0.222054E+04 kcal/mol
     Total      GaussFluct  -0.604025E+02 kcal/mol


     total cpu time spent up to now is      839.1 secs

     total energy              =     -35.49918225 Ry
     estimated scf accuracy    <       0.00729062 Ry

     iteration #  6     ecut=    40.00 Ry     beta= 0.10
     Davidson diagonalization with overlap
     ethr =  9.11E-05,  avg # of iterations = 12.0

     negative rho (up, down):  7.419E-03 0.000E+00

     Laue-RISM Calculation

     convergence threshold    = 2.664E-06
     iter. #     1  RMS(g-h-1)= 8.331E-04  nbox=  0
     iter. #    11  RMS(g-h-1)= 1.168E-04  nbox= 10
     iter. #    21  RMS(g-h-1)= 4.394E-05  nbox= 20
     iter. #    31  RMS(g-h-1)= 2.757E-05  nbox= 20
     iter. #    41  RMS(g-h-1)= 1.891E-05  nbox= 20
     iter. #    51  RMS(g-h-1)= 1.733E-05  nbox= 20
     iter. #    61  RMS(g-h-1)= 1.561E-05  nbox=  5
     iter. #    71  RMS(g-h-1)= 1.082E-05  nbox= 15
     iter. #    81  RMS(g-h-1)= 7.351E-06  nbox= 20
     iter. #    91  RMS(g-h-1)= 6.112E-06  nbox= 20
     iter. #   101  RMS(g-h-1)= 5.324E-06  nbox= 20
     iter. #   111  RMS(g-h-1)= 4.861E-06  nbox= 20
     iter. #   121  RMS(g-h-1)= 4.234E-06  nbox=  9
     iter. #   131  RMS(g-h-1)= 3.894E-06  nbox=  3
     iter. #   141  RMS(g-h-1)= 3.731E-06  nbox= 13
     iter. #   151  RMS(g-h-1)= 3.632E-06  nbox=  7
     iter. #   161  RMS(g-h-1)= 3.500E-06  nbox= 17
     iter. #   171  RMS(g-h-1)= 3.422E-06  nbox= 11
     iter. #   181  RMS(g-h-1)= 3.336E-06  nbox=  5
     iter. #   191  RMS(g-h-1)= 3.220E-06  nbox= 15
     iter. #   201  RMS(g-h-1)= 3.113E-06  nbox=  9
     iter. #   211  RMS(g-h-1)= 3.023E-06  nbox=  3
     iter. #   221  RMS(g-h-1)= 2.909E-06  nbox= 13
     iter. #   231  RMS(g-h-1)= 2.814E-06  nbox=  7
     iter. #   241  RMS(g-h-1)= 2.718E-06  nbox= 17
     iter. #   251  RMS(g-h-1)= 2.665E-06  nbox= 11
     iter. #   252  RMS(g-h-1)= 2.661E-06  nbox= 12

     End of Laue-RISM calculation


     convergence has been achieved in   252 iterations


     solvent charge   -1.00028, renormalised to   -1.00000

     Total number of solvent (in expand-cell)
     H2O         1129.473360
     K+            20.084658
     OH-           21.084616

     Total charge of solvent (in expand-cell)
     H2O           -0.000398 e
     K+            20.084658 e
     OH-          -21.084542 e
     Total         -1.000281 e

     Chemical potential of solvation (in expand-cell)
     H2O        GaussFluct  -0.400832E+02 kcal/mol
     K+         GaussFluct  -0.224115E+04 kcal/mol
     OH-        GaussFluct   0.222043E+04 kcal/mol
     Total      GaussFluct  -0.608047E+02 kcal/mol


     total cpu time spent up to now is      985.2 secs

     total energy              =     -35.50173803 Ry
     estimated scf accuracy    <       0.00133653 Ry

     iteration #  7     ecut=    40.00 Ry     beta= 0.10
     Davidson diagonalization with overlap
     ethr =  1.67E-05,  avg # of iterations =  5.0

     negative rho (up, down):  7.625E-03 0.000E+00

     Laue-RISM Calculation

     convergence threshold    = 2.087E-06
     iter. #     1  RMS(g-h-1)= 5.809E-04  nbox=  0
     iter. #    11  RMS(g-h-1)= 9.092E-05  nbox= 10
     iter. #    21  RMS(g-h-1)= 3.502E-05  nbox= 20
     iter. #    31  RMS(g-h-1)= 2.259E-05  nbox= 20
     iter. #    41  RMS(g-h-1)= 1.530E-05  nbox= 20
     iter. #    51  RMS(g-h-1)= 1.281E-05  nbox= 20
     iter. #    61  RMS(g-h-1)= 1.176E-05  nbox= 20
     iter. #    71  RMS(g-h-1)= 1.034E-05  nbox= 20
     iter. #    81  RMS(g-h-1)= 7.322E-06  nbox= 20
     iter. #    91  RMS(g-h-1)= 6.223E-06  nbox= 20
     iter. #   101  RMS(g-h-1)= 5.519E-06  nbox= 20
     iter. #   111  RMS(g-h-1)= 5.243E-06  nbox=  2
     iter. #   121  RMS(g-h-1)= 3.402E-06  nbox= 12
     iter. #   131  RMS(g-h-1)= 2.819E-06  nbox= 20
     iter. #   141  RMS(g-h-1)= 2.688E-06  nbox=  6
     iter. #   151  RMS(g-h-1)= 2.625E-06  nbox= 16
     iter. #   161  RMS(g-h-1)= 2.570E-06  nbox= 10
     iter. #   171  RMS(g-h-1)= 2.540E-06  nbox=  4
     iter. #   181  RMS(g-h-1)= 2.497E-06  nbox= 14
     iter. #   191  RMS(g-h-1)= 2.459E-06  nbox=  8
     iter. #   201  RMS(g-h-1)= 2.404E-06  nbox=  2
     iter. #   211  RMS(g-h-1)= 2.336E-06  nbox= 12
     iter. #   221  RMS(g-h-1)= 2.331E-06  nbox=  6
     iter. #   231  RMS(g-h-1)= 2.245E-06  nbox= 16
     iter. #   241  RMS(g-h-1)= 2.189E-06  nbox= 10
     iter. #   251  RMS(g-h-1)= 2.137E-06  nbox=  4
     iter. #   260  RMS(g-h-1)= 2.086E-06  nbox= 13

     End of Laue-RISM calculation


     convergence has been achieved in   260 iterations


     solvent charge   -1.00033, renormalised to   -1.00000

     Total number of solvent (in expand-cell)
     H2O         1129.484620
     K+            20.086627
     OH-           21.086558

     Total charge of solvent (in expand-cell)
     H2O           -0.000385 e
     K+            20.086627 e
     OH-          -21.086571 e
     Total         -1.000330 e

     Chemical potential of solvation (in expand-cell)
     H2O        GaussFluct  -0.401945E+02 kcal/mol
     K+         GaussFluct  -0.224116E+04 kcal/mol
     OH-        GaussFluct   0.222027E+04 kcal/mol
     Total      GaussFluct  -0.610856E+02 kcal/mol


     total cpu time spent up to now is     1135.6 secs

     total energy              =     -35.50175479 Ry
     estimated scf accuracy    <       0.00054042 Ry

     iteration #  8     ecut=    40.00 Ry     beta= 0.10
     Davidson diagonalization with overlap
     ethr =  6.76E-06,  avg # of iterations =  9.0

     negative rho (up, down):  7.263E-03 0.000E+00

     Laue-RISM Calculation

     convergence threshold    = 1.183E-06
     iter. #     1  RMS(g-h-1)= 5.962E-05  nbox=  0
     iter. #    11  RMS(g-h-1)= 7.038E-06  nbox= 10
     iter. #    21  RMS(g-h-1)= 3.247E-06  nbox= 20
     iter. #    31  RMS(g-h-1)= 2.460E-06  nbox= 20
     iter. #    41  RMS(g-h-1)= 2.286E-06  nbox=  4
     iter. #    51  RMS(g-h-1)= 2.172E-06  nbox= 14
     iter. #    61  RMS(g-h-1)= 2.071E-06  nbox=  8
     iter. #    71  RMS(g-h-1)= 2.033E-06  nbox=  2
     iter. #    81  RMS(g-h-1)= 2.009E-06  nbox= 12
     iter. #    91  RMS(g-h-1)= 1.993E-06  nbox=  6
     iter. #   101  RMS(g-h-1)= 1.973E-06  nbox= 16
     iter. #   111  RMS(g-h-1)= 1.934E-06  nbox= 10
     iter. #   121  RMS(g-h-1)= 1.934E-06  nbox=  4
     iter. #   131  RMS(g-h-1)= 1.892E-06  nbox= 14
     iter. #   141  RMS(g-h-1)= 1.829E-06  nbox=  8
     iter. #   151  RMS(g-h-1)= 1.779E-06  nbox=  2
     iter. #   161  RMS(g-h-1)= 1.741E-06  nbox= 12
     iter. #   171  RMS(g-h-1)= 1.720E-06  nbox=  6
     iter. #   181  RMS(g-h-1)= 1.702E-06  nbox= 16
     iter. #   191  RMS(g-h-1)= 1.686E-06  nbox= 10
     iter. #   201  RMS(g-h-1)= 1.672E-06  nbox=  4
     iter. #   211  RMS(g-h-1)= 1.663E-06  nbox= 14
     iter. #   221  RMS(g-h-1)= 1.659E-06  nbox=  8
     iter. #   231  RMS(g-h-1)= 1.654E-06  nbox=  2
     iter. #   241  RMS(g-h-1)= 1.647E-06  nbox= 12
     iter. #   251  RMS(g-h-1)= 1.624E-06  nbox=  6
     iter. #   261  RMS(g-h-1)= 1.592E-06  nbox= 16
     iter. #   271  RMS(g-h-1)= 1.601E-06  nbox= 10
     iter. #   281  RMS(g-h-1)= 1.554E-06  nbox=  4
     iter. #   291  RMS(g-h-1)= 1.511E-06  nbox= 14
     iter. #   301  RMS(g-h-1)= 1.487E-06  nbox=  8
     iter. #   311  RMS(g-h-1)= 1.476E-06  nbox=  2
     iter. #   321  RMS(g-h-1)= 1.469E-06  nbox= 12
     iter. #   331  RMS(g-h-1)= 1.461E-06  nbox=  6
     iter. #   341  RMS(g-h-1)= 1.449E-06  nbox= 16
     iter. #   351  RMS(g-h-1)= 1.428E-06  nbox= 10
     iter. #   361  RMS(g-h-1)= 1.406E-06  nbox=  4
     iter. #   371  RMS(g-h-1)= 1.378E-06  nbox= 14
     iter. #   381  RMS(g-h-1)= 1.347E-06  nbox=  8
     iter. #   391  RMS(g-h-1)= 1.317E-06  nbox=  2
     iter. #   401  RMS(g-h-1)= 1.282E-06  nbox= 12
     iter. #   411  RMS(g-h-1)= 1.261E-06  nbox=  6
     iter. #   421  RMS(g-h-1)= 1.245E-06  nbox= 16
     iter. #   431  RMS(g-h-1)= 1.232E-06  nbox= 10
     iter. #   441  RMS(g-h-1)= 1.220E-06  nbox=  4
     iter. #   451  RMS(g-h-1)= 1.293E-06  nbox= 14
     iter. #   461  RMS(g-h-1)= 1.247E-06  nbox=  8
     iter. #   471  RMS(g-h-1)= 1.185E-06  nbox=  2
     iter. #   473  RMS(g-h-1)= 1.182E-06  nbox=  4

     End of Laue-RISM calculation


     convergence has been achieved in   473 iterations


     solvent charge   -1.00039, renormalised to   -1.00000

     Total number of solvent (in expand-cell)
     H2O         1129.486813
     K+            20.086765
     OH-           21.086771

     Total charge of solvent (in expand-cell)
     H2O           -0.000386 e
     K+            20.086765 e
     OH-          -21.086766 e
     Total         -1.000387 e

     Chemical potential of solvation (in expand-cell)
     H2O        GaussFluct  -0.402233E+02 kcal/mol
     K+         GaussFluct  -0.224116E+04 kcal/mol
     OH-        GaussFluct   0.222026E+04 kcal/mol
     Total      GaussFluct  -0.611289E+02 kcal/mol


     total cpu time spent up to now is     1394.5 secs

     total energy              =     -35.50177672 Ry
     estimated scf accuracy    <       0.00006567 Ry

     iteration #  9     ecut=    40.00 Ry     beta= 0.10
     Davidson diagonalization with overlap
     ethr =  8.21E-07,  avg # of iterations =  5.0

     negative rho (up, down):  6.978E-03 0.000E+00

     Laue-RISM Calculation

     convergence threshold    = 1.231E-06
     iter. #     1  RMS(g-h-1)= 1.041E-04  nbox=  0
     iter. #    11  RMS(g-h-1)= 1.009E-05  nbox= 10
     iter. #    21  RMS(g-h-1)= 3.813E-06  nbox= 20
     iter. #    31  RMS(g-h-1)= 2.154E-06  nbox= 20
     iter. #    41  RMS(g-h-1)= 1.884E-06  nbox= 20
     iter. #    51  RMS(g-h-1)= 1.749E-06  nbox=  5
     iter. #    61  RMS(g-h-1)= 1.444E-06  nbox= 15
     iter. #    71  RMS(g-h-1)= 1.289E-06  nbox=  9
     iter. #    74  RMS(g-h-1)= 1.228E-06  nbox= 12

     End of Laue-RISM calculation


     convergence has been achieved in    74 iterations


     solvent charge   -1.00048, renormalised to   -1.00000

     Total number of solvent (in expand-cell)
     H2O         1129.490011
     K+            20.086912
     OH-           21.087110

     Total charge of solvent (in expand-cell)
     H2O           -0.000408 e
     K+            20.086912 e
     OH-          -21.086989 e
     Total         -1.000485 e

     Chemical potential of solvation (in expand-cell)
     H2O        GaussFluct  -0.402611E+02 kcal/mol
     K+         GaussFluct  -0.224116E+04 kcal/mol
     OH-        GaussFluct   0.222023E+04 kcal/mol
     Total      GaussFluct  -0.611877E+02 kcal/mol


     total cpu time spent up to now is     1439.8 secs

     total energy              =     -35.50174829 Ry
     estimated scf accuracy    <       0.00007610 Ry

     iteration # 10     ecut=    40.00 Ry     beta= 0.10
     Davidson diagonalization with overlap
     ethr =  8.21E-07,  avg # of iterations =  2.0

     negative rho (up, down):  6.735E-03 0.000E+00

     Laue-RISM Calculation

     convergence threshold    = 1.000E-06
     iter. #     1  RMS(g-h-1)= 5.512E-06  nbox=  0
     iter. #    11  RMS(g-h-1)= 1.349E-06  nbox= 10
     iter. #    21  RMS(g-h-1)= 1.193E-06  nbox= 20
     iter. #    31  RMS(g-h-1)= 1.167E-06  nbox= 10
     iter. #    41  RMS(g-h-1)= 1.163E-06  nbox=  4
     iter. #    51  RMS(g-h-1)= 1.159E-06  nbox= 14
     iter. #    61  RMS(g-h-1)= 1.157E-06  nbox=  8
     iter. #    71  RMS(g-h-1)= 1.154E-06  nbox=  2
     iter. #    81  RMS(g-h-1)= 1.146E-06  nbox= 12
     iter. #    91  RMS(g-h-1)= 1.128E-06  nbox=  6
     iter. #   101  RMS(g-h-1)= 1.115E-06  nbox= 16
     iter. #   111  RMS(g-h-1)= 1.104E-06  nbox= 10
     iter. #   121  RMS(g-h-1)= 1.091E-06  nbox=  4
     iter. #   131  RMS(g-h-1)= 1.074E-06  nbox= 14
     iter. #   141  RMS(g-h-1)= 1.059E-06  nbox=  8
     iter. #   151  RMS(g-h-1)= 1.045E-06  nbox=  2
     iter. #   161  RMS(g-h-1)= 1.031E-06  nbox= 12
     iter. #   171  RMS(g-h-1)= 1.015E-06  nbox=  6
     iter. #   181  RMS(g-h-1)= 1.004E-06  nbox= 16
     iter. #   187  RMS(g-h-1)= 9.990E-07  nbox=  6

     End of Laue-RISM calculation


     convergence has been achieved in   187 iterations


     solvent charge   -1.00030, renormalised to   -1.00000

     Total number of solvent (in expand-cell)
     H2O         1129.489830
     K+            20.086925
     OH-           21.086881

     Total charge of solvent (in expand-cell)
     H2O           -0.000383 e
     K+            20.086925 e
     OH-          -21.086843 e
     Total         -1.000301 e

     Chemical potential of solvation (in expand-cell)
     H2O        GaussFluct  -0.402568E+02 kcal/mol
     K+         GaussFluct  -0.224117E+04 kcal/mol
     OH-        GaussFluct   0.222024E+04 kcal/mol
     Total      GaussFluct  -0.611833E+02 kcal/mol


     total cpu time spent up to now is     1544.9 secs

     total energy              =     -35.50175905 Ry
     estimated scf accuracy    <       0.00000078 Ry

     iteration # 11     ecut=    40.00 Ry     beta= 0.10
     Davidson diagonalization with overlap
     ethr =  9.74E-09,  avg # of iterations =  3.0

     negative rho (up, down):  6.557E-03 0.000E+00

     Laue-RISM Calculation

     convergence threshold    = 1.000E-06
     iter. #     1  RMS(g-h-1)= 1.837E-05  nbox=  0
     iter. #    11  RMS(g-h-1)= 2.745E-06  nbox= 10
     iter. #    21  RMS(g-h-1)= 1.347E-06  nbox= 20
     iter. #    31  RMS(g-h-1)= 1.118E-06  nbox= 20
     iter. #    41  RMS(g-h-1)= 1.069E-06  nbox=  6
     iter. #    51  RMS(g-h-1)= 1.022E-06  nbox= 16
     iter. #    59  RMS(g-h-1)= 9.989E-07  nbox=  8

     End of Laue-RISM calculation


     convergence has been achieved in    59 iterations


     solvent charge   -1.00039, renormalised to   -1.00000

     Total number of solvent (in expand-cell)
     H2O         1129.490520
     K+            20.086888
     OH-           21.086964

     Total charge of solvent (in expand-cell)
     H2O           -0.000383 e
     K+            20.086888 e
     OH-          -21.086890 e
     Total         -1.000385 e

     Chemical potential of solvation (in expand-cell)
     H2O        GaussFluct  -0.402675E+02 kcal/mol
     K+         GaussFluct  -0.224116E+04 kcal/mol
     OH-        GaussFluct   0.222023E+04 kcal/mol
     Total      GaussFluct  -0.611954E+02 kcal/mol


     total cpu time spent up to now is     1581.1 secs

     total energy              =     -35.50175982 Ry
     estimated scf accuracy    <       0.00000082 Ry

     iteration # 12     ecut=    40.00 Ry     beta= 0.10
     Davidson diagonalization with overlap
     ethr =  9.74E-09,  avg # of iterations =  1.0

     negative rho (up, down):  6.444E-03 0.000E+00

     Laue-RISM Calculation

     convergence threshold    = 1.000E-06
     iter. #     1  RMS(g-h-1)= 8.148E-06  nbox=  0
     iter. #    11  RMS(g-h-1)= 1.430E-06  nbox= 10
     iter. #    21  RMS(g-h-1)= 1.030E-06  nbox= 20
     iter. #    31  RMS(g-h-1)= 1.000E-06  nbox= 20
     iter. #    33  RMS(g-h-1)= 9.973E-07  nbox=  3

     End of Laue-RISM calculation


     convergence has been achieved in    33 iterations


     solvent charge   -1.00027, renormalised to   -1.00000

     Total number of solvent (in expand-cell)
     H2O         1129.491266
     K+            20.086916
     OH-           21.086864

     Total charge of solvent (in expand-cell)
     H2O           -0.000381 e
     K+            20.086916 e
     OH-          -21.086808 e
     Total         -1.000273 e

     Chemical potential of solvation (in expand-cell)
     H2O        GaussFluct  -0.402743E+02 kcal/mol
     K+         GaussFluct  -0.224117E+04 kcal/mol
     OH-        GaussFluct   0.222023E+04 kcal/mol
     Total      GaussFluct  -0.612077E+02 kcal/mol


     total cpu time spent up to now is     1603.3 secs

     total energy              =     -35.50176036 Ry
     estimated scf accuracy    <       0.00000009 Ry

     iteration # 13     ecut=    40.00 Ry     beta= 0.10
     Davidson diagonalization with overlap
     ethr =  1.09E-09,  avg # of iterations =  2.0

     negative rho (up, down):  6.379E-03 0.000E+00

     Laue-RISM Calculation

     convergence threshold    = 1.000E-06
     iter. #     1  RMS(g-h-1)= 9.059E-06  nbox=  0
     iter. #    11  RMS(g-h-1)= 1.489E-06  nbox= 10
     iter. #    21  RMS(g-h-1)= 1.066E-06  nbox= 20
     iter. #    31  RMS(g-h-1)= 1.023E-06  nbox= 20
     iter. #    41  RMS(g-h-1)= 1.005E-06  nbox=  9
     iter. #    44  RMS(g-h-1)= 9.999E-07  nbox= 12

     End of Laue-RISM calculation


     convergence has been achieved in    44 iterations


     solvent charge   -1.00021, renormalised to   -1.00000

     Total number of solvent (in expand-cell)
     H2O         1129.491460
     K+            20.086927
     OH-           21.086844

     Total charge of solvent (in expand-cell)
     H2O           -0.000390 e
     K+            20.086927 e
     OH-          -21.086745 e
     Total         -1.000208 e

     Chemical potential of solvation (in expand-cell)
     H2O        GaussFluct  -0.402752E+02 kcal/mol
     K+         GaussFluct  -0.224117E+04 kcal/mol
     OH-        GaussFluct   0.222023E+04 kcal/mol
     Total      GaussFluct  -0.612101E+02 kcal/mol


     total cpu time spent up to now is     1631.4 secs

     total energy              =     -35.50176056 Ry
     estimated scf accuracy    <       0.00000021 Ry

     iteration # 14     ecut=    40.00 Ry     beta= 0.10
     Davidson diagonalization with overlap
     ethr =  1.09E-09,  avg # of iterations =  2.0

     negative rho (up, down):  7.090E-03 0.000E+00

     Laue-RISM Calculation

     convergence threshold    = 1.000E-06
     iter. #     1  RMS(g-h-1)= 1.525E-06  nbox=  0
     iter. #     9  RMS(g-h-1)= 9.992E-07  nbox=  8

     End of Laue-RISM calculation


     convergence has been achieved in     9 iterations


     solvent charge   -1.00023, renormalised to   -1.00000

     Total number of solvent (in expand-cell)
     H2O         1129.491471
     K+            20.086920
     OH-           21.086862

     Total charge of solvent (in expand-cell)
     H2O           -0.000387 e
     K+            20.086920 e
     OH-          -21.086765 e
     Total         -1.000233 e

     Chemical potential of solvation (in expand-cell)
     H2O        GaussFluct  -0.402759E+02 kcal/mol
     K+         GaussFluct  -0.224116E+04 kcal/mol
     OH-        GaussFluct   0.222023E+04 kcal/mol
     Total      GaussFluct  -0.612094E+02 kcal/mol


     total cpu time spent up to now is     1639.5 secs

     End of self-consistent calculation

          k = 0.0000 0.0000 0.0000 (115195 PWs)   bands (ev):

   -29.2504 -15.8904 -15.8370 -11.5176  -0.9934  -0.1950   0.1307   0.1342

     the Fermi energy is    -6.5316 ev

!    total energy              =     -35.50176108 Ry
     estimated scf accuracy    <          1.3E-09 Ry
     smearing contrib. (-TS)   =      -0.00000000 Ry
     internal energy E=F+TS    =     -35.50176108 Ry

     The total energy is F=E-TS. E is the sum of the following terms:
     one-electron contribution =     -75.71705582 Ry
     hartree contribution      =      36.75721749 Ry
     xc contribution           =      -8.83898591 Ry
     ewald contribution        =      12.49228057 Ry
     solvation energy (RISM)   =      -0.19521742 Ry

     convergence has been achieved in  14 iterations

     negative rho (up, down):  7.090E-03 0.000E+00

     Forces acting on atoms (cartesian axes, Ry/au):

     atom    1 type  1   force =     0.00001451    0.00005364    0.00213074
     atom    2 type  2   force =     0.00106005    0.00027733   -0.00008343
     atom    3 type  2   force =    -0.00108857   -0.00035283   -0.00017178
     atom    4 type  2   force =     0.00001402    0.00002187   -0.00187712

     Total force =     0.003258     Total SCF correction =     0.000062

     Writing all to output data dir ./output/opt.save/ :
     XML data file, charge density, RISM restart, pseudopotentials, RISM molfiles, collected wavefunctions
 
     init_run     :    177.50s CPU    181.22s WALL (       1 calls)
     electrons    :   1310.98s CPU   1345.19s WALL (       1 calls)
     forces       :      0.55s CPU      0.61s WALL (       1 calls)

     Called by init_run:
     wfcinit      :      0.02s CPU      0.03s WALL (       1 calls)
     potinit      :    175.77s CPU    179.37s WALL (       1 calls)
     hinit0       :      0.18s CPU      0.21s WALL (       1 calls)

     Called by electrons:
     c_bands      :      0.98s CPU      1.02s WALL (      14 calls)
     sum_band     :      1.65s CPU      2.39s WALL (      14 calls)
     v_of_rho     :      2.46s CPU      2.71s WALL (      15 calls)
     newd         :      1.88s CPU      2.55s WALL (      15 calls)
     mix_rho      :      0.47s CPU      0.53s WALL (      14 calls)

     Called by c_bands:
     init_us_2    :      0.01s CPU      0.01s WALL (      29 calls)
     regterg      :      0.96s CPU      0.98s WALL (      14 calls)

     Called by *egterg:
     rdiaghg      :      0.01s CPU      0.01s WALL (      73 calls)
     h_psi        :      0.90s CPU      0.92s WALL (      74 calls)
     s_psi        :      0.01s CPU      0.01s WALL (      74 calls)
     g_psi        :      0.00s CPU      0.00s WALL (      59 calls)

     Called by h_psi:
     h_psi:calbec :      0.03s CPU      0.03s WALL (      74 calls)
     vloc_psi     :      0.85s CPU      0.88s WALL (      74 calls)
     add_vuspsi   :      0.01s CPU      0.01s WALL (      74 calls)

     General routines
     calbec       :      0.03s CPU      0.03s WALL (      92 calls)
     fft          :      2.75s CPU      3.27s WALL (     218 calls)
     ffts         :      0.14s CPU      0.16s WALL (      29 calls)
     fftw         :      0.73s CPU      0.75s WALL (     430 calls)
     interpolate  :      0.23s CPU      0.28s WALL (      15 calls)
 
     Parallel routines
     fft_scatt_xy :     11.37s CPU     11.66s WALL (   30906 calls)
     fft_scatt_yz :    147.90s CPU    178.39s WALL (   30906 calls)

     RISM routines
     1DRISM_pre   :      0.00s CPU      0.00s WALL (       1 calls)
     1DRISM_run   :     88.06s CPU    112.22s WALL (       1 calls)
     3DRISM_pre   :      6.19s CPU      6.33s WALL (       1 calls)
     3DRISM_run   :   1472.15s CPU   1507.71s WALL (      15 calls)
     3DRISM_for   :      0.09s CPU      0.09s WALL (       1 calls)
     3DRISM_vsol  :      0.20s CPU      0.22s WALL (      15 calls)
 
     PWSCF        :  26m27.54s CPU  27m44.88s WALL

 
   This run was terminated on:   5: 5: 9  30May2024            

=------------------------------------------------------------------------------=
   JOB DONE.
=------------------------------------------------------------------------------=
