
     Program PWSCF v.7.3.1 starts on 29May2024 at 12:23:22 

     This program is part of the open-source Quantum ESPRESSO suite
     for quantum simulation of materials; please cite
         "P. Giannozzi et al., J. Phys.:Condens. Matter 21 395502 (2009);
         "P. Giannozzi et al., J. Phys.:Condens. Matter 29 465901 (2017);
         "P. Giannozzi et al., J. Chem. Phys. 152 154105 (2020);
          URL http://www.quantum-espresso.org", 
     in publications or presentations arising from this work. More details at
     http://www.quantum-espresso.org/quote

     Parallel version (MPI), running on    64 processors

     MPI processes distributed on     1 nodes
     245488 MiB available memory on the printing compute node when the environment starts
 
     Reading input from espresso.pwi

     Current dimensions of program PWSCF are:
     Max number of different atomic species (ntypx) = 10
     Max number of k-points (npk) =  40000
     Max angular momentum in pseudopotentials (lmaxx) =  4
     Message from routine iosys_1drism:
     default density from MOL file(H2O.tip5p.Nishihara.MOL) is used

     gamma-point specific algorithms are used
 
     R & G space division:  proc/nbgrp/npool/nimage =      64
     Subspace diagonalization in iterative solution of the eigenvalue problem:
     a serial algorithm will be used


     Molecule # 1 for H2O read from file:
     ../../pseudo/H2O.tip5p.Nishihara.MOL
     Density:
         0.26741625E+03 cell^-1
         0.49533751E-02 bohr^-3
         0.55506881E+02 mol/L
         0.99997200E+00 g/cm^3
     Permittivity:
        78.500000
     Number of atoms:   5
     Atoms:
       #  atom      X (angs)      Y (angs)      Z (angs)      Q (e)         E (kcal/mol)  S (angs)
       1  O/h2o     0.00000000   -0.06556000    0.00000000    0.00000000    0.16000000    3.12000000
       2  H/h2o     0.75695000    0.52032000    0.00000000    0.24100000    0.04600000    1.00000000
       3  H/h2o    -0.75695000    0.52032000    0.00000000    0.24100000    0.04600000    1.00000000
       4  L/h2o     0.00000000   -0.46971000    0.57154000   -0.24100000    0.04600000    1.80000000
       5  L/h2o     0.00000000   -0.46971000   -0.57154000   -0.24100000    0.04600000    1.80000000


     Molecule # 2 for K+ read from file:
     ../../pseudo/K+.Hagiwara.MOL
     Density:
         0.48177136E+01 cell^-1
         0.89238937E-04 bohr^-3
         0.10000000E+01 mol/L
         0.39098300E-01 g/cm^3
     Number of atoms:   1
     Atoms:
       #  atom      X (angs)      Y (angs)      Z (angs)      Q (e)         E (kcal/mol)  S (angs)
       1  K         0.00000000    0.00000000    0.00000000    1.00000000    0.00032800    4.93462800


     Molecule # 3 for OH- read from file:
     ../../pseudo/OH-.oplsaa.MOL
     Density:
         0.48177136E+01 cell^-1
         0.89238937E-04 bohr^-3
         0.10000000E+01 mol/L
         0.17007340E-01 g/cm^3
     Number of atoms:   2
     Atoms:
       #  atom      X (angs)      Y (angs)      Z (angs)      Q (e)         E (kcal/mol)  S (angs)
       1  O/oh      0.00000000    0.00000000    0.00000000   -1.30000000    0.25000000    3.20000000
       2  H/oh      0.95300000    0.00000000    0.00000000    0.30000000    0.04600000    1.00000000


     1D-RISM info
     ------------
     closure equation        =           KH
     temperature             =     300.0000  kelvin
     coulomb smearing radius =       2.0000  bohr
     number of solvent sites =            8
     number of grids         =         5973
     maximum of R-space      =     999.8326  bohr
     maximum of G-space      =      18.7632  bohr^-1
     number of iterations    =        15000
     convergence threshold   =      1.0E-08
     Gaussian width of bonds =       0.3162  bohr
     size of MDIIS           =           20
     step of MDIIS           =       0.2000
     number of processes     =           64


     1D-RISM Calculation

     iter. #     1  RMS(g-h-1)= 7.798E-04  nbox=  0  T= 2400.00K
     iter. #   101  RMS(g-h-1)= 1.222E-06  nbox= 20  T= 1600.00K
     iter. #   201  RMS(g-h-1)= 3.438E-06  nbox= 20  T=  711.11K
     iter. #   301  RMS(g-h-1)= 2.056E-06  nbox= 20  T=  474.07K
     iter. #   401  RMS(g-h-1)= 1.763E-06  nbox= 20  T=  316.05K
     iter. #   501  RMS(g-h-1)= 4.727E-07  nbox= 20  T=  300.00K
     iter. #   601  RMS(g-h-1)= 1.645E-07  nbox= 20  T=  300.00K
     iter. #   701  RMS(g-h-1)= 1.081E-07  nbox= 20  T=  300.00K
     iter. #   801  RMS(g-h-1)= 8.835E-08  nbox= 20  T=  300.00K
     iter. #   901  RMS(g-h-1)= 6.970E-08  nbox= 20  T=  300.00K
     iter. #  1001  RMS(g-h-1)= 6.055E-08  nbox= 20  T=  300.00K
     iter. #  1101  RMS(g-h-1)= 5.293E-08  nbox= 20  T=  300.00K
     iter. #  1201  RMS(g-h-1)= 4.761E-08  nbox= 20  T=  300.00K
     iter. #  1301  RMS(g-h-1)= 4.352E-08  nbox= 20  T=  300.00K
     iter. #  1401  RMS(g-h-1)= 3.851E-08  nbox= 20  T=  300.00K
     iter. #  1501  RMS(g-h-1)= 3.419E-08  nbox= 20  T=  300.00K
     iter. #  1601  RMS(g-h-1)= 3.267E-08  nbox= 20  T=  300.00K
     iter. #  1701  RMS(g-h-1)= 3.106E-08  nbox= 20  T=  300.00K
     iter. #  1801  RMS(g-h-1)= 3.048E-08  nbox= 20  T=  300.00K
     iter. #  1901  RMS(g-h-1)= 3.489E-08  nbox= 20  T=  300.00K
     iter. #  2001  RMS(g-h-1)= 2.958E-08  nbox= 20  T=  300.00K
     iter. #  2101  RMS(g-h-1)= 2.944E-08  nbox= 20  T=  300.00K
     iter. #  2201  RMS(g-h-1)= 2.907E-08  nbox= 20  T=  300.00K
     iter. #  2301  RMS(g-h-1)= 2.885E-08  nbox= 20  T=  300.00K
     iter. #  2401  RMS(g-h-1)= 2.669E-08  nbox= 20  T=  300.00K
     iter. #  2501  RMS(g-h-1)= 2.543E-08  nbox= 20  T=  300.00K
     iter. #  2601  RMS(g-h-1)= 2.527E-08  nbox= 20  T=  300.00K
     iter. #  2701  RMS(g-h-1)= 2.375E-08  nbox= 20  T=  300.00K
     iter. #  2801  RMS(g-h-1)= 2.284E-08  nbox= 20  T=  300.00K
     iter. #  2901  RMS(g-h-1)= 2.201E-08  nbox= 20  T=  300.00K
     iter. #  3001  RMS(g-h-1)= 2.062E-08  nbox= 20  T=  300.00K
     iter. #  3101  RMS(g-h-1)= 1.942E-08  nbox= 20  T=  300.00K
     iter. #  3201  RMS(g-h-1)= 1.805E-08  nbox= 20  T=  300.00K
     iter. #  3301  RMS(g-h-1)= 1.705E-08  nbox= 20  T=  300.00K
     iter. #  3401  RMS(g-h-1)= 1.618E-08  nbox= 20  T=  300.00K
     iter. #  3501  RMS(g-h-1)= 1.528E-08  nbox= 20  T=  300.00K
     iter. #  3601  RMS(g-h-1)= 1.447E-08  nbox= 20  T=  300.00K
     iter. #  3701  RMS(g-h-1)= 1.382E-08  nbox= 20  T=  300.00K
     iter. #  3801  RMS(g-h-1)= 1.322E-08  nbox= 20  T=  300.00K
     iter. #  3901  RMS(g-h-1)= 1.258E-08  nbox= 20  T=  300.00K
     iter. #  4001  RMS(g-h-1)= 1.198E-08  nbox= 20  T=  300.00K
     iter. #  4101  RMS(g-h-1)= 1.140E-08  nbox= 20  T=  300.00K
     iter. #  4201  RMS(g-h-1)= 1.082E-08  nbox= 20  T=  300.00K
     iter. #  4301  RMS(g-h-1)= 1.035E-08  nbox= 20  T=  300.00K
     iter. #  4370  RMS(g-h-1)= 1.000E-08  nbox= 20  T=  300.00K

     End of 1D-RISM calculation


     convergence has been achieved in  4370 iterations


     Chemical potential of solvation

     H2O        H2O        Closure      0.144050E+01 kcal/mol
                           GaussFluct  -0.702204E+01 kcal/mol

                K+         Closure     -0.280552E+00 kcal/mol
                           GaussFluct  -0.350091E+00 kcal/mol

                OH-        Closure     -0.749912E+00 kcal/mol
                           GaussFluct  -0.841451E+00 kcal/mol

                Total      Closure      0.410036E+00 kcal/mol
                           GaussFluct  -0.821359E+01 kcal/mol

     K+         H2O        Closure     -0.155726E+02 kcal/mol
                           GaussFluct  -0.194325E+02 kcal/mol

                K+         Closure      0.351545E+06 kcal/mol
                           GaussFluct   0.351545E+06 kcal/mol

                OH-        Closure     -0.351595E+06 kcal/mol
                           GaussFluct  -0.351595E+06 kcal/mol

                Total      Closure     -0.662658E+02 kcal/mol
                           GaussFluct  -0.701837E+02 kcal/mol

     OH-        H2O        Closure     -0.416252E+02 kcal/mol
                           GaussFluct  -0.467063E+02 kcal/mol

                K+         Closure     -0.351595E+06 kcal/mol
                           GaussFluct  -0.351595E+06 kcal/mol

                OH-        Closure      0.351544E+06 kcal/mol
                           GaussFluct   0.351544E+06 kcal/mol

                Total      Closure     -0.925524E+02 kcal/mol
                           GaussFluct  -0.977560E+02 kcal/mol

 
     Parallelization info
     --------------------
     sticks:   dense  smooth     PW     G-vecs:    dense   smooth      PW
     Min         567     284     69                81548    28832    3594
     Max         570     286     72                81558    28844    3612
     Sum       36381   18197   4537              5219483  1845573  230389
 
     Using Slab Decomposition
 


     bravais-lattice index     =            0
     lattice parameter (alat)  =      37.7945  a.u.
     unit-cell volume          =   53986.6760 (a.u.)^3
     number of atoms/cell      =            4
     number of atomic types    =            2
     number of electrons       =         8.00
     number of Kohn-Sham states=            8
     kinetic-energy cutoff     =      40.0000  Ry
     charge density cutoff     =     320.0000  Ry
     scf convergence threshold =      1.0E-08
     mixing beta               =       0.1000
     number of iterations used =            8  plain     mixing
     energy convergence thresh.=      1.0E-05
     force convergence thresh. =      1.0E-04
     Exchange-correlation=  SLA  PW   PBX  PBC
                           (   1   4   3   4   0   0   0)
     nstep                     =          200


     Effective Screening Medium Method
     =================================
     Boundary Conditions: Vacuum-Slab-Vacuum
     total charge in unit cell        =   1.0000
     grid points for fit at edges     =        4 
 

     celldm(1)=  37.794522  celldm(2)=   0.000000  celldm(3)=   0.000000
     celldm(4)=   0.000000  celldm(5)=   0.000000  celldm(6)=   0.000000

     crystal axes: (cart. coord. in units of alat)
               a(1) = (   1.000000   0.000000   0.000000 )  
               a(2) = (   0.000000   1.000000   0.000000 )  
               a(3) = (   0.000000   0.000000   1.000000 )  

     reciprocal axes: (cart. coord. in units 2 pi/alat)
               b(1) = (  1.000000  0.000000  0.000000 )  
               b(2) = (  0.000000  1.000000  0.000000 )  
               b(3) = (  0.000000  0.000000  1.000000 )  


     PseudoPot. # 1 for O  read from file:
     ../../pseudo/o_pbe_v1.2.uspp.F.UPF
     MD5 check sum: 734c27235a0248c51dbae37a1fbe46ec
     Pseudo is Ultrasoft + core correction, Zval =  6.0
     Generated by new atomic code, or converted to UPF format
     Using radial grid of  737 points,  5 beta functions with: 
                l(1) =   0
                l(2) =   0
                l(3) =   1
                l(4) =   1
                l(5) =   2
     Q(r) pseudized with  8 coefficients,  rinner =    0.900   0.900   0.900
                                                       0.900   0.900

     PseudoPot. # 2 for H  read from file:
     ../../pseudo/h_pbe_v1.4.uspp.F.UPF
     MD5 check sum: 761ae9a214b05c3daf00ab9f6b793d6f
     Pseudo is Ultrasoft, Zval =  1.0
     Generated by new atomic code, or converted to UPF format
     Using radial grid of  615 points,  2 beta functions with: 
                l(1) =   0
                l(2) =   0
     Q(r) pseudized with  8 coefficients,  rinner =    0.700

     atomic species   valence    mass     pseudopotential
     O                 6.00    15.99900     O ( 1.00)
     H                 1.00     1.00800     H ( 1.00)

     No symmetry found



   Cartesian axes

     site n.     atom                  positions (alat units)
         1        O      tau(   1) = (   0.0000000   0.0000000   0.0000000  )
         2        H      tau(   2) = (   0.0300000   0.0300000   0.0300000  )
         3        H      tau(   3) = (   0.0300000   0.0300000  -0.0300000  )
         4        H      tau(   4) = (  -0.0300000  -0.0250000   0.0000000  )

     number of k points=     1  Gaussian smearing, width (Ry)=  0.0100
                       cart. coord. in units 2pi/alat
        k(    1) = (   0.0000000   0.0000000   0.0000000), wk =   2.0000000

     Dense  grid:  2609742 G-vectors     FFT dimensions: ( 216, 216, 216)

     Smooth grid:   922787 G-vectors     FFT dimensions: ( 160, 160, 160)

     Estimated max dynamical RAM per process >     104.23 MB

     Estimated total dynamical RAM >       6.51 GB

     Solute:
       # atom     E (kcal/mol)  S (angs)
       1  O       0.15540000    3.16600000    given
       2  H       0.04600000    1.00000000    given
       3  H       0.04600000    1.00000000    given
       4  H       0.04600000    1.00000000    given


     Laue-RISM info
     --------------
     closure equation        =           KH
     temperature             =     300.0000  kelvin
     coulomb smearing radius =       2.0000  bohr
     number of solvent sites =            6
     solvent sites           =    O/h2o   H/h2o   L/h2o       K
     solvent sites           =     O/oh    H/oh
     number of iterations    =        15000
     convergence threshold   =      1.0E-06
     convergence level       =       0.8000
     size of MDIIS           =           20
     step of MDIIS           =       0.1000
     solvent cutoff          =     160.0000  Ry
     Custom grid:   922787 G-vectors     FFT dimensions: ( 160, 160, 160)

     Boundary Conditions        : Solvent-Slab-Solvent
     unit-cell (in bohr)        : [ -18.897261  18.897261]
     expand-cell (in bohr)      : [ -79.840929  79.604713]
     solvent of left (in bohr)  : [ -79.840929   0.000000]
     solvent of right (in bohr) : [   0.000000  79.604713]
     reference of potential     : average of both sides
     #grids to fit at edges of unit-cell =    4
     Laue grid:     9099 Gxy-vectors     FFT dimensions: ( 160, 160, 675)


     Initial potential from superposition of free atoms

     starting charge       9.0000, renormalised to       8.0000

     negative rho (up, down):  7.742E-04 0.000E+00

     Laue-RISM Calculation

     convergence threshold    = 6.310E-06
     iter. #     1  RMS(g-h-1)= 1.133E-01  nbox=  0
     iter. #    11  RMS(g-h-1)= 1.065E-02  nbox= 10
     iter. #    21  RMS(g-h-1)= 5.623E-03  nbox= 20
     iter. #    31  RMS(g-h-1)= 2.002E-03  nbox= 20
     iter. #    41  RMS(g-h-1)= 1.317E-03  nbox= 20
     iter. #    51  RMS(g-h-1)= 9.709E-04  nbox= 20
     iter. #    61  RMS(g-h-1)= 7.715E-04  nbox= 20
     iter. #    71  RMS(g-h-1)= 6.258E-04  nbox= 20
     iter. #    81  RMS(g-h-1)= 4.462E-04  nbox= 11
     iter. #    91  RMS(g-h-1)= 2.681E-04  nbox= 20
     iter. #   101  RMS(g-h-1)= 2.034E-04  nbox= 20
     iter. #   111  RMS(g-h-1)= 1.737E-04  nbox= 20
     iter. #   121  RMS(g-h-1)= 1.386E-04  nbox=  8
     iter. #   131  RMS(g-h-1)= 8.293E-05  nbox= 18
     iter. #   141  RMS(g-h-1)= 4.554E-05  nbox= 20
     iter. #   151  RMS(g-h-1)= 2.954E-05  nbox= 20
     iter. #   161  RMS(g-h-1)= 2.404E-05  nbox= 20
     iter. #   171  RMS(g-h-1)= 1.810E-05  nbox= 20
     iter. #   181  RMS(g-h-1)= 1.565E-05  nbox= 20
     iter. #   191  RMS(g-h-1)= 1.465E-05  nbox= 20
     iter. #   201  RMS(g-h-1)= 1.289E-05  nbox= 11
     iter. #   211  RMS(g-h-1)= 1.102E-05  nbox=  5
     iter. #   221  RMS(g-h-1)= 9.466E-06  nbox= 15
     iter. #   231  RMS(g-h-1)= 8.448E-06  nbox=  9
     iter. #   241  RMS(g-h-1)= 7.691E-06  nbox=  3
     iter. #   251  RMS(g-h-1)= 7.017E-06  nbox= 13
     iter. #   261  RMS(g-h-1)= 6.460E-06  nbox=  7
     iter. #   264  RMS(g-h-1)= 6.288E-06  nbox= 10

     End of Laue-RISM calculation


     convergence has been achieved in   264 iterations


     solvent charge   -1.00066, renormalised to   -1.00000

     Total number of solvent (in expand-cell)
     H2O         1129.232551
     K+            20.056707
     OH-           21.057229

     Total charge of solvent (in expand-cell)
     H2O           -0.000439 e
     K+            20.056707 e
     OH-          -21.056930 e
     Total         -1.000662 e

     Chemical potential of solvation (in expand-cell)
     H2O        GaussFluct  -0.368872E+02 kcal/mol
     K+         GaussFluct  -0.224083E+04 kcal/mol
     OH-        GaussFluct   0.222370E+04 kcal/mol
     Total      GaussFluct  -0.540203E+02 kcal/mol

     Starting wfcs are    7 randomized atomic wfcs +    1 random wfcs

     total cpu time spent up to now is      277.5 secs

     Self-consistent Calculation

     iteration #  1     ecut=    40.00 Ry     beta= 0.10
     Davidson diagonalization with overlap
     ethr =  1.00E-02,  avg # of iterations =  5.0

     negative rho (up, down):  1.238E-03 0.000E+00

     Laue-RISM Calculation

     convergence threshold    = 6.310E-06
     iter. #     1  RMS(g-h-1)= 5.868E-03  nbox=  0
     iter. #    11  RMS(g-h-1)= 7.378E-04  nbox= 10
     iter. #    21  RMS(g-h-1)= 2.815E-04  nbox= 20
     iter. #    31  RMS(g-h-1)= 1.781E-04  nbox= 20
     iter. #    41  RMS(g-h-1)= 1.124E-04  nbox= 20
     iter. #    51  RMS(g-h-1)= 1.060E-04  nbox= 20
     iter. #    61  RMS(g-h-1)= 8.643E-05  nbox=  7
     iter. #    71  RMS(g-h-1)= 5.952E-05  nbox= 17
     iter. #    81  RMS(g-h-1)= 4.152E-05  nbox= 20
     iter. #    91  RMS(g-h-1)= 3.301E-05  nbox= 20
     iter. #   101  RMS(g-h-1)= 2.229E-05  nbox= 20
     iter. #   111  RMS(g-h-1)= 1.792E-05  nbox= 20
     iter. #   121  RMS(g-h-1)= 1.493E-05  nbox=  3
     iter. #   131  RMS(g-h-1)= 1.062E-05  nbox= 13
     iter. #   141  RMS(g-h-1)= 8.803E-06  nbox= 20
     iter. #   151  RMS(g-h-1)= 7.190E-06  nbox= 11
     iter. #   159  RMS(g-h-1)= 6.202E-06  nbox=  3

     End of Laue-RISM calculation


     convergence has been achieved in   159 iterations


     solvent charge   -1.00359, renormalised to   -1.00000

     Total number of solvent (in expand-cell)
     H2O         1129.246362
     K+            20.057189
     OH-           21.059539

     Total charge of solvent (in expand-cell)
     H2O           -0.000451 e
     K+            20.057189 e
     OH-          -21.060332 e
     Total         -1.003594 e

     Chemical potential of solvation (in expand-cell)
     H2O        GaussFluct  -0.372917E+02 kcal/mol
     K+         GaussFluct  -0.224080E+04 kcal/mol
     OH-        GaussFluct   0.222349E+04 kcal/mol
     Total      GaussFluct  -0.545996E+02 kcal/mol


     total cpu time spent up to now is      373.9 secs

     total energy              =     -35.79241767 Ry
     estimated scf accuracy    <       2.48712884 Ry

     iteration #  2     ecut=    40.00 Ry     beta= 0.10
     Davidson diagonalization with overlap
     ethr =  1.00E-02,  avg # of iterations =  1.0

     negative rho (up, down):  4.602E-03 0.000E+00

     Laue-RISM Calculation

     convergence threshold    = 6.310E-06
     iter. #     1  RMS(g-h-1)= 2.343E-02  nbox=  0
     iter. #    11  RMS(g-h-1)= 3.210E-03  nbox= 10
     iter. #    21  RMS(g-h-1)= 1.617E-03  nbox= 20
     iter. #    31  RMS(g-h-1)= 8.682E-04  nbox= 20
     iter. #    41  RMS(g-h-1)= 6.055E-04  nbox= 20
     iter. #    51  RMS(g-h-1)= 4.742E-04  nbox= 20
     iter. #    61  RMS(g-h-1)= 3.801E-04  nbox= 20
     iter. #    71  RMS(g-h-1)= 3.432E-04  nbox=  3
     iter. #    81  RMS(g-h-1)= 2.740E-04  nbox= 13
     iter. #    91  RMS(g-h-1)= 1.928E-04  nbox= 20
     iter. #   101  RMS(g-h-1)= 1.433E-04  nbox= 20
     iter. #   111  RMS(g-h-1)= 1.157E-04  nbox= 20
     iter. #   121  RMS(g-h-1)= 8.895E-05  nbox= 20
     iter. #   131  RMS(g-h-1)= 7.312E-05  nbox= 20
     iter. #   141  RMS(g-h-1)= 5.392E-05  nbox= 20
     iter. #   151  RMS(g-h-1)= 4.734E-05  nbox= 20
     iter. #   161  RMS(g-h-1)= 3.737E-05  nbox=  8
     iter. #   171  RMS(g-h-1)= 2.750E-05  nbox= 18
     iter. #   181  RMS(g-h-1)= 2.137E-05  nbox= 20
     iter. #   191  RMS(g-h-1)= 1.614E-05  nbox= 11
     iter. #   201  RMS(g-h-1)= 1.288E-05  nbox= 20
     iter. #   211  RMS(g-h-1)= 1.031E-05  nbox= 10
     iter. #   221  RMS(g-h-1)= 9.526E-06  nbox=  4
     iter. #   231  RMS(g-h-1)= 8.857E-06  nbox= 14
     iter. #   241  RMS(g-h-1)= 8.485E-06  nbox=  8
     iter. #   251  RMS(g-h-1)= 8.052E-06  nbox=  2
     iter. #   261  RMS(g-h-1)= 7.387E-06  nbox= 12
     iter. #   271  RMS(g-h-1)= 6.917E-06  nbox=  6
     iter. #   281  RMS(g-h-1)= 6.667E-06  nbox= 16
     iter. #   291  RMS(g-h-1)= 6.243E-06  nbox= 10

     End of Laue-RISM calculation


     convergence has been achieved in   291 iterations


     solvent charge   -1.00120, renormalised to   -1.00000

     Total number of solvent (in expand-cell)
     H2O         1129.455005
     K+            20.064332
     OH-           21.065031

     Total charge of solvent (in expand-cell)
     H2O           -0.000450 e
     K+            20.064332 e
     OH-          -21.065085 e
     Total         -1.001203 e

     Chemical potential of solvation (in expand-cell)
     H2O        GaussFluct  -0.408900E+02 kcal/mol
     K+         GaussFluct  -0.224079E+04 kcal/mol
     OH-        GaussFluct   0.222103E+04 kcal/mol
     Total      GaussFluct  -0.606482E+02 kcal/mol


     total cpu time spent up to now is      546.7 secs

     total energy              =     -34.86516234 Ry
     estimated scf accuracy    <       1.59135780 Ry

     iteration #  3     ecut=    40.00 Ry     beta= 0.10
     Davidson diagonalization with overlap
     ethr =  1.00E-02,  avg # of iterations =  2.0

     negative rho (up, down):  3.759E-03 0.000E+00

     Laue-RISM Calculation

     convergence threshold    = 6.310E-06
     iter. #     1  RMS(g-h-1)= 7.106E-03  nbox=  0
     iter. #    11  RMS(g-h-1)= 9.257E-04  nbox= 10
     iter. #    21  RMS(g-h-1)= 4.494E-04  nbox= 20
     iter. #    31  RMS(g-h-1)= 2.255E-04  nbox= 20
     iter. #    41  RMS(g-h-1)= 1.574E-04  nbox= 20
     iter. #    51  RMS(g-h-1)= 1.141E-04  nbox= 20
     iter. #    61  RMS(g-h-1)= 1.004E-04  nbox= 20
     iter. #    71  RMS(g-h-1)= 9.187E-05  nbox= 20
     iter. #    81  RMS(g-h-1)= 6.753E-05  nbox= 11
     iter. #    91  RMS(g-h-1)= 4.598E-05  nbox= 20
     iter. #   101  RMS(g-h-1)= 3.220E-05  nbox= 20
     iter. #   111  RMS(g-h-1)= 2.471E-05  nbox= 20
     iter. #   121  RMS(g-h-1)= 2.018E-05  nbox= 20
     iter. #   131  RMS(g-h-1)= 1.776E-05  nbox= 20
     iter. #   141  RMS(g-h-1)= 1.374E-05  nbox=  8
     iter. #   151  RMS(g-h-1)= 9.928E-06  nbox= 18
     iter. #   161  RMS(g-h-1)= 7.665E-06  nbox= 20
     iter. #   171  RMS(g-h-1)= 6.713E-06  nbox=  4
     iter. #   177  RMS(g-h-1)= 6.258E-06  nbox= 10

     End of Laue-RISM calculation


     convergence has been achieved in   177 iterations


     solvent charge   -0.99907, renormalised to   -1.00000

     Total number of solvent (in expand-cell)
     H2O         1129.347564
     K+            20.065604
     OH-           21.064857

     Total charge of solvent (in expand-cell)
     H2O           -0.000391 e
     K+            20.065604 e
     OH-          -21.064286 e
     Total         -0.999073 e

     Chemical potential of solvation (in expand-cell)
     H2O        GaussFluct  -0.391370E+02 kcal/mol
     K+         GaussFluct  -0.224084E+04 kcal/mol
     OH-        GaussFluct   0.222188E+04 kcal/mol
     Total      GaussFluct  -0.580940E+02 kcal/mol


     total cpu time spent up to now is      654.7 secs

     total energy              =     -35.23677199 Ry
     estimated scf accuracy    <       0.08561473 Ry

     iteration #  4     ecut=    40.00 Ry     beta= 0.10
     Davidson diagonalization with overlap
     ethr =  1.07E-03,  avg # of iterations =  2.0

     negative rho (up, down):  7.899E-03 0.000E+00

     Laue-RISM Calculation

     convergence threshold    = 6.310E-06
     iter. #     1  RMS(g-h-1)= 8.244E-03  nbox=  0
     iter. #    11  RMS(g-h-1)= 1.263E-03  nbox= 10
     iter. #    21  RMS(g-h-1)= 5.280E-04  nbox= 20
     iter. #    31  RMS(g-h-1)= 3.236E-04  nbox= 20
     iter. #    41  RMS(g-h-1)= 2.234E-04  nbox= 20
     iter. #    51  RMS(g-h-1)= 1.827E-04  nbox= 20
     iter. #    61  RMS(g-h-1)= 1.678E-04  nbox=  3
     iter. #    71  RMS(g-h-1)= 1.280E-04  nbox= 13
     iter. #    81  RMS(g-h-1)= 8.403E-05  nbox= 20
     iter. #    91  RMS(g-h-1)= 6.268E-05  nbox= 20
     iter. #   101  RMS(g-h-1)= 5.508E-05  nbox= 20
     iter. #   111  RMS(g-h-1)= 3.908E-05  nbox= 20
     iter. #   121  RMS(g-h-1)= 2.739E-05  nbox= 20
     iter. #   131  RMS(g-h-1)= 2.091E-05  nbox= 20
     iter. #   141  RMS(g-h-1)= 1.575E-05  nbox= 20
     iter. #   151  RMS(g-h-1)= 1.405E-05  nbox= 20
     iter. #   161  RMS(g-h-1)= 1.146E-05  nbox=  7
     iter. #   171  RMS(g-h-1)= 8.981E-06  nbox= 17
     iter. #   181  RMS(g-h-1)= 7.650E-06  nbox= 11
     iter. #   191  RMS(g-h-1)= 6.586E-06  nbox=  5
     iter. #   195  RMS(g-h-1)= 6.253E-06  nbox=  9

     End of Laue-RISM calculation


     convergence has been achieved in   195 iterations


     solvent charge   -1.00109, renormalised to   -1.00000

     Total number of solvent (in expand-cell)
     H2O         1129.468719
     K+            20.074674
     OH-           21.074656

     Total charge of solvent (in expand-cell)
     H2O           -0.000457 e
     K+            20.074674 e
     OH-          -21.075307 e
     Total         -1.001089 e

     Chemical potential of solvation (in expand-cell)
     H2O        GaussFluct  -0.407565E+02 kcal/mol
     K+         GaussFluct  -0.224082E+04 kcal/mol
     OH-        GaussFluct   0.222029E+04 kcal/mol
     Total      GaussFluct  -0.612869E+02 kcal/mol


     total cpu time spent up to now is      772.9 secs

     total energy              =     -35.23967701 Ry
     estimated scf accuracy    <       0.16796577 Ry

     iteration #  5     ecut=    40.00 Ry     beta= 0.10
     Davidson diagonalization with overlap
     ethr =  1.07E-03,  avg # of iterations =  5.0

     negative rho (up, down):  8.602E-03 0.000E+00

     Laue-RISM Calculation

     convergence threshold    = 6.310E-06
     iter. #     1  RMS(g-h-1)= 3.884E-03  nbox=  0
     iter. #    11  RMS(g-h-1)= 4.886E-04  nbox= 10
     iter. #    21  RMS(g-h-1)= 2.052E-04  nbox= 20
     iter. #    31  RMS(g-h-1)= 1.266E-04  nbox= 20
     iter. #    41  RMS(g-h-1)= 8.273E-05  nbox= 20
     iter. #    51  RMS(g-h-1)= 6.969E-05  nbox= 20
     iter. #    61  RMS(g-h-1)= 6.113E-05  nbox= 20
     iter. #    71  RMS(g-h-1)= 5.337E-05  nbox= 20
     iter. #    81  RMS(g-h-1)= 4.485E-05  nbox= 20
     iter. #    91  RMS(g-h-1)= 3.183E-05  nbox= 20
     iter. #   101  RMS(g-h-1)= 2.739E-05  nbox= 20
     iter. #   111  RMS(g-h-1)= 2.345E-05  nbox= 20
     iter. #   121  RMS(g-h-1)= 1.873E-05  nbox= 20
     iter. #   131  RMS(g-h-1)= 1.244E-05  nbox= 20
     iter. #   141  RMS(g-h-1)= 1.062E-05  nbox= 20
     iter. #   151  RMS(g-h-1)= 9.425E-06  nbox= 20
     iter. #   161  RMS(g-h-1)= 8.832E-06  nbox=  2
     iter. #   171  RMS(g-h-1)= 7.245E-06  nbox= 12
     iter. #   181  RMS(g-h-1)= 6.618E-06  nbox=  6
     iter. #   188  RMS(g-h-1)= 6.278E-06  nbox= 13

     End of Laue-RISM calculation


     convergence has been achieved in   188 iterations


     solvent charge   -1.00232, renormalised to   -1.00000

     Total number of solvent (in expand-cell)
     H2O         1129.550240
     K+            20.076855
     OH-           21.078412

     Total charge of solvent (in expand-cell)
     H2O           -0.000521 e
     K+            20.076855 e
     OH-          -21.078653 e
     Total         -1.002319 e

     Chemical potential of solvation (in expand-cell)
     H2O        GaussFluct  -0.419250E+02 kcal/mol
     K+         GaussFluct  -0.224077E+04 kcal/mol
     OH-        GaussFluct   0.221945E+04 kcal/mol
     Total      GaussFluct  -0.632388E+02 kcal/mol


     total cpu time spent up to now is      891.3 secs

     total energy              =     -35.22720360 Ry
     estimated scf accuracy    <       0.03339241 Ry

     iteration #  6     ecut=    40.00 Ry     beta= 0.10
     Davidson diagonalization with overlap
     ethr =  4.17E-04,  avg # of iterations =  8.0

     negative rho (up, down):  7.889E-03 0.000E+00

     Laue-RISM Calculation

     convergence threshold    = 3.450E-06
     iter. #     1  RMS(g-h-1)= 3.920E-04  nbox=  0
     iter. #    11  RMS(g-h-1)= 5.158E-05  nbox= 10
     iter. #    21  RMS(g-h-1)= 1.776E-05  nbox= 20
     iter. #    31  RMS(g-h-1)= 1.208E-05  nbox= 20
     iter. #    41  RMS(g-h-1)= 9.653E-06  nbox= 20
     iter. #    51  RMS(g-h-1)= 8.458E-06  nbox= 20
     iter. #    61  RMS(g-h-1)= 7.550E-06  nbox= 20
     iter. #    71  RMS(g-h-1)= 6.612E-06  nbox= 11
     iter. #    81  RMS(g-h-1)= 5.851E-06  nbox=  5
     iter. #    91  RMS(g-h-1)= 5.443E-06  nbox= 15
     iter. #   101  RMS(g-h-1)= 5.246E-06  nbox=  9
     iter. #   111  RMS(g-h-1)= 5.119E-06  nbox=  3
     iter. #   121  RMS(g-h-1)= 4.898E-06  nbox= 13
     iter. #   131  RMS(g-h-1)= 4.653E-06  nbox=  7
     iter. #   141  RMS(g-h-1)= 4.468E-06  nbox= 17
     iter. #   151  RMS(g-h-1)= 4.301E-06  nbox= 11
     iter. #   161  RMS(g-h-1)= 4.222E-06  nbox=  5
     iter. #   171  RMS(g-h-1)= 4.084E-06  nbox= 15
     iter. #   181  RMS(g-h-1)= 3.995E-06  nbox=  9
     iter. #   191  RMS(g-h-1)= 3.948E-06  nbox=  3
     iter. #   201  RMS(g-h-1)= 3.857E-06  nbox= 13
     iter. #   211  RMS(g-h-1)= 3.767E-06  nbox=  7
     iter. #   221  RMS(g-h-1)= 3.657E-06  nbox= 17
     iter. #   231  RMS(g-h-1)= 3.529E-06  nbox= 11
     iter. #   241  RMS(g-h-1)= 3.503E-06  nbox=  5
     iter. #   246  RMS(g-h-1)= 3.426E-06  nbox= 10

     End of Laue-RISM calculation


     convergence has been achieved in   246 iterations


     solvent charge   -1.00111, renormalised to   -1.00000

     Total number of solvent (in expand-cell)
     H2O         1129.563558
     K+            20.076732
     OH-           21.077322

     Total charge of solvent (in expand-cell)
     H2O           -0.000449 e
     K+            20.076732 e
     OH-          -21.077395 e
     Total         -1.001112 e

     Chemical potential of solvation (in expand-cell)
     H2O        GaussFluct  -0.421024E+02 kcal/mol
     K+         GaussFluct  -0.224078E+04 kcal/mol
     OH-        GaussFluct   0.221938E+04 kcal/mol
     Total      GaussFluct  -0.634986E+02 kcal/mol


     total cpu time spent up to now is     1029.8 secs

     total energy              =     -35.23809855 Ry
     estimated scf accuracy    <       0.00348998 Ry

     iteration #  7     ecut=    40.00 Ry     beta= 0.10
     Davidson diagonalization with overlap
     ethr =  4.36E-05,  avg # of iterations = 10.0

     negative rho (up, down):  7.849E-03 0.000E+00

     Laue-RISM Calculation

     convergence threshold    = 3.164E-06
     iter. #     1  RMS(g-h-1)= 4.606E-04  nbox=  0
     iter. #    11  RMS(g-h-1)= 3.825E-05  nbox= 10
     iter. #    21  RMS(g-h-1)= 1.405E-05  nbox= 20
     iter. #    31  RMS(g-h-1)= 6.059E-06  nbox= 20
     iter. #    41  RMS(g-h-1)= 5.699E-06  nbox= 20
     iter. #    51  RMS(g-h-1)= 4.882E-06  nbox=  5
     iter. #    61  RMS(g-h-1)= 3.989E-06  nbox= 15
     iter. #    71  RMS(g-h-1)= 3.715E-06  nbox=  3
     iter. #    81  RMS(g-h-1)= 3.533E-06  nbox= 13
     iter. #    91  RMS(g-h-1)= 3.389E-06  nbox=  7
     iter. #   101  RMS(g-h-1)= 3.311E-06  nbox= 17
     iter. #   111  RMS(g-h-1)= 3.254E-06  nbox= 11
     iter. #   121  RMS(g-h-1)= 3.194E-06  nbox=  5
     iter. #   126  RMS(g-h-1)= 3.159E-06  nbox= 10

     End of Laue-RISM calculation


     convergence has been achieved in   126 iterations


     solvent charge   -1.00065, renormalised to   -1.00000

     Total number of solvent (in expand-cell)
     H2O         1129.589092
     K+            20.077159
     OH-           21.077228

     Total charge of solvent (in expand-cell)
     H2O           -0.000451 e
     K+            20.077159 e
     OH-          -21.077358 e
     Total         -1.000649 e

     Chemical potential of solvation (in expand-cell)
     H2O        GaussFluct  -0.424149E+02 kcal/mol
     K+         GaussFluct  -0.224074E+04 kcal/mol
     OH-        GaussFluct   0.221916E+04 kcal/mol
     Total      GaussFluct  -0.639986E+02 kcal/mol


     total cpu time spent up to now is     1103.3 secs

     total energy              =     -35.23705879 Ry
     estimated scf accuracy    <       0.00252923 Ry

     iteration #  8     ecut=    40.00 Ry     beta= 0.10
     Davidson diagonalization with overlap
     ethr =  3.16E-05,  avg # of iterations =  2.0

     negative rho (up, down):  7.481E-03 0.000E+00

     Laue-RISM Calculation

     convergence threshold    = 1.223E-06
     iter. #     1  RMS(g-h-1)= 4.048E-05  nbox=  0
     iter. #    11  RMS(g-h-1)= 5.541E-06  nbox= 10
     iter. #    21  RMS(g-h-1)= 3.544E-06  nbox= 20
     iter. #    31  RMS(g-h-1)= 3.260E-06  nbox= 20
     iter. #    41  RMS(g-h-1)= 3.180E-06  nbox=  7
     iter. #    51  RMS(g-h-1)= 3.127E-06  nbox= 17
     iter. #    61  RMS(g-h-1)= 3.075E-06  nbox= 11
     iter. #    71  RMS(g-h-1)= 3.048E-06  nbox=  5
     iter. #    81  RMS(g-h-1)= 3.009E-06  nbox= 15
     iter. #    91  RMS(g-h-1)= 2.962E-06  nbox=  9
     iter. #   101  RMS(g-h-1)= 3.033E-06  nbox=  3
     iter. #   111  RMS(g-h-1)= 2.881E-06  nbox= 13
     iter. #   121  RMS(g-h-1)= 2.808E-06  nbox=  7
     iter. #   131  RMS(g-h-1)= 2.727E-06  nbox= 17
     iter. #   141  RMS(g-h-1)= 2.661E-06  nbox= 11
     iter. #   151  RMS(g-h-1)= 2.613E-06  nbox=  5
     iter. #   161  RMS(g-h-1)= 2.575E-06  nbox= 15
     iter. #   171  RMS(g-h-1)= 2.545E-06  nbox=  9
     iter. #   181  RMS(g-h-1)= 2.511E-06  nbox=  3
     iter. #   191  RMS(g-h-1)= 2.479E-06  nbox= 13
     iter. #   201  RMS(g-h-1)= 2.433E-06  nbox=  7
     iter. #   211  RMS(g-h-1)= 2.369E-06  nbox= 17
     iter. #   221  RMS(g-h-1)= 2.321E-06  nbox= 11
     iter. #   231  RMS(g-h-1)= 2.280E-06  nbox=  5
     iter. #   241  RMS(g-h-1)= 2.234E-06  nbox= 15
     iter. #   251  RMS(g-h-1)= 2.204E-06  nbox=  9
     iter. #   261  RMS(g-h-1)= 2.178E-06  nbox=  3
     iter. #   271  RMS(g-h-1)= 2.153E-06  nbox= 13
     iter. #   281  RMS(g-h-1)= 2.132E-06  nbox=  7
     iter. #   291  RMS(g-h-1)= 2.112E-06  nbox= 17
     iter. #   301  RMS(g-h-1)= 2.093E-06  nbox= 11
     iter. #   311  RMS(g-h-1)= 2.073E-06  nbox=  5
     iter. #   321  RMS(g-h-1)= 2.048E-06  nbox= 15
     iter. #   331  RMS(g-h-1)= 2.015E-06  nbox=  9
     iter. #   341  RMS(g-h-1)= 1.975E-06  nbox=  3
     iter. #   351  RMS(g-h-1)= 1.943E-06  nbox= 13
     iter. #   361  RMS(g-h-1)= 1.908E-06  nbox=  7
     iter. #   371  RMS(g-h-1)= 1.894E-06  nbox= 17
     iter. #   381  RMS(g-h-1)= 1.887E-06  nbox= 11
     iter. #   391  RMS(g-h-1)= 1.879E-06  nbox=  5
     iter. #   401  RMS(g-h-1)= 1.872E-06  nbox= 15
     iter. #   411  RMS(g-h-1)= 1.861E-06  nbox=  9
     iter. #   421  RMS(g-h-1)= 1.848E-06  nbox=  3
     iter. #   431  RMS(g-h-1)= 1.832E-06  nbox= 13
     iter. #   441  RMS(g-h-1)= 1.826E-06  nbox=  7
     iter. #   451  RMS(g-h-1)= 1.811E-06  nbox= 17
     iter. #   461  RMS(g-h-1)= 1.799E-06  nbox= 11
     iter. #   471  RMS(g-h-1)= 1.785E-06  nbox=  5
     iter. #   481  RMS(g-h-1)= 1.770E-06  nbox= 15
     iter. #   491  RMS(g-h-1)= 1.756E-06  nbox=  9
     iter. #   501  RMS(g-h-1)= 1.742E-06  nbox=  3
     iter. #   511  RMS(g-h-1)= 1.731E-06  nbox= 13
     iter. #   521  RMS(g-h-1)= 1.721E-06  nbox=  7
     iter. #   531  RMS(g-h-1)= 1.708E-06  nbox= 17
     iter. #   541  RMS(g-h-1)= 1.696E-06  nbox= 11
     iter. #   551  RMS(g-h-1)= 1.675E-06  nbox=  5
     iter. #   561  RMS(g-h-1)= 1.656E-06  nbox= 15
     iter. #   571  RMS(g-h-1)= 1.635E-06  nbox=  9
     iter. #   581  RMS(g-h-1)= 1.607E-06  nbox=  3
     iter. #   591  RMS(g-h-1)= 1.578E-06  nbox= 13
     iter. #   601  RMS(g-h-1)= 1.549E-06  nbox=  7
     iter. #   611  RMS(g-h-1)= 1.532E-06  nbox= 17
     iter. #   621  RMS(g-h-1)= 1.519E-06  nbox= 11
     iter. #   631  RMS(g-h-1)= 1.506E-06  nbox=  5
     iter. #   641  RMS(g-h-1)= 1.494E-06  nbox= 15
     iter. #   651  RMS(g-h-1)= 1.486E-06  nbox=  9
     iter. #   661  RMS(g-h-1)= 1.479E-06  nbox=  3
     iter. #   671  RMS(g-h-1)= 1.470E-06  nbox= 13
     iter. #   681  RMS(g-h-1)= 1.460E-06  nbox=  7
     iter. #   691  RMS(g-h-1)= 1.447E-06  nbox= 17
     iter. #   701  RMS(g-h-1)= 1.433E-06  nbox= 11
     iter. #   711  RMS(g-h-1)= 1.420E-06  nbox=  5
     iter. #   721  RMS(g-h-1)= 1.408E-06  nbox= 15
     iter. #   731  RMS(g-h-1)= 1.396E-06  nbox=  9
     iter. #   741  RMS(g-h-1)= 1.386E-06  nbox=  3
     iter. #   751  RMS(g-h-1)= 1.374E-06  nbox= 13
     iter. #   761  RMS(g-h-1)= 1.363E-06  nbox=  7
     iter. #   771  RMS(g-h-1)= 1.350E-06  nbox= 17
     iter. #   781  RMS(g-h-1)= 1.339E-06  nbox= 11
     iter. #   791  RMS(g-h-1)= 1.328E-06  nbox=  5
     iter. #   801  RMS(g-h-1)= 1.314E-06  nbox= 15
     iter. #   811  RMS(g-h-1)= 1.302E-06  nbox=  9
     iter. #   821  RMS(g-h-1)= 1.292E-06  nbox=  3
     iter. #   831  RMS(g-h-1)= 1.280E-06  nbox= 13
     iter. #   841  RMS(g-h-1)= 1.268E-06  nbox=  7
     iter. #   851  RMS(g-h-1)= 1.252E-06  nbox= 17
     iter. #   861  RMS(g-h-1)= 1.238E-06  nbox= 11
     iter. #   871  RMS(g-h-1)= 1.230E-06  nbox=  5
     iter. #   876  RMS(g-h-1)= 1.223E-06  nbox= 10

     End of Laue-RISM calculation


     convergence has been achieved in   876 iterations


     solvent charge   -1.00043, renormalised to   -1.00000

     Total number of solvent (in expand-cell)
     H2O         1129.590334
     K+            20.077187
     OH-           21.077188

     Total charge of solvent (in expand-cell)
     H2O           -0.000437 e
     K+            20.077187 e
     OH-          -21.077181 e
     Total         -1.000431 e

     Chemical potential of solvation (in expand-cell)
     H2O        GaussFluct  -0.424368E+02 kcal/mol
     K+         GaussFluct  -0.224074E+04 kcal/mol
     OH-        GaussFluct   0.221915E+04 kcal/mol
     Total      GaussFluct  -0.640338E+02 kcal/mol


     total cpu time spent up to now is     1578.9 secs

     total energy              =     -35.23739080 Ry
     estimated scf accuracy    <       0.00007444 Ry

     iteration #  9     ecut=    40.00 Ry     beta= 0.10
     Davidson diagonalization with overlap
     ethr =  9.30E-07,  avg # of iterations = 14.0

     negative rho (up, down):  7.210E-03 0.000E+00

     Laue-RISM Calculation

     convergence threshold    = 1.191E-06
     iter. #     1  RMS(g-h-1)= 1.118E-04  nbox=  0
     iter. #    11  RMS(g-h-1)= 1.453E-05  nbox= 10
     iter. #    21  RMS(g-h-1)= 4.803E-06  nbox= 20
     iter. #    31  RMS(g-h-1)= 2.521E-06  nbox= 20
     iter. #    41  RMS(g-h-1)= 2.199E-06  nbox= 20
     iter. #    51  RMS(g-h-1)= 1.701E-06  nbox=  6
     iter. #    61  RMS(g-h-1)= 1.464E-06  nbox= 16
     iter. #    71  RMS(g-h-1)= 1.319E-06  nbox=  8
     iter. #    81  RMS(g-h-1)= 1.283E-06  nbox=  2
     iter. #    91  RMS(g-h-1)= 1.259E-06  nbox= 12
     iter. #   101  RMS(g-h-1)= 1.242E-06  nbox=  6
     iter. #   111  RMS(g-h-1)= 1.229E-06  nbox= 16
     iter. #   121  RMS(g-h-1)= 1.221E-06  nbox= 10
     iter. #   131  RMS(g-h-1)= 1.214E-06  nbox=  4
     iter. #   141  RMS(g-h-1)= 1.206E-06  nbox= 14
     iter. #   151  RMS(g-h-1)= 1.200E-06  nbox=  8
     iter. #   161  RMS(g-h-1)= 1.194E-06  nbox=  2
     iter. #   166  RMS(g-h-1)= 1.191E-06  nbox=  7

     End of Laue-RISM calculation


     convergence has been achieved in   166 iterations


     solvent charge   -1.00043, renormalised to   -1.00000

     Total number of solvent (in expand-cell)
     H2O         1129.600292
     K+            20.077152
     OH-           21.077132

     Total charge of solvent (in expand-cell)
     H2O           -0.000432 e
     K+            20.077152 e
     OH-          -21.077146 e
     Total         -1.000427 e

     Chemical potential of solvation (in expand-cell)
     H2O        GaussFluct  -0.425734E+02 kcal/mol
     K+         GaussFluct  -0.224074E+04 kcal/mol
     OH-        GaussFluct   0.221908E+04 kcal/mol
     Total      GaussFluct  -0.642350E+02 kcal/mol


     total cpu time spent up to now is     1673.5 secs

     total energy              =     -35.23743810 Ry
     estimated scf accuracy    <       0.00006746 Ry

     iteration # 10     ecut=    40.00 Ry     beta= 0.10
     Davidson diagonalization with overlap
     ethr =  8.43E-07,  avg # of iterations =  1.0

     negative rho (up, down):  7.011E-03 0.000E+00

     Laue-RISM Calculation

     convergence threshold    = 1.489E-06
     iter. #     1  RMS(g-h-1)= 1.380E-04  nbox=  0
     iter. #    11  RMS(g-h-1)= 1.402E-05  nbox= 10
     iter. #    21  RMS(g-h-1)= 5.011E-06  nbox= 20
     iter. #    31  RMS(g-h-1)= 3.228E-06  nbox= 20
     iter. #    41  RMS(g-h-1)= 2.458E-06  nbox= 20
     iter. #    51  RMS(g-h-1)= 2.258E-06  nbox= 20
     iter. #    61  RMS(g-h-1)= 1.960E-06  nbox=  6
     iter. #    70  RMS(g-h-1)= 1.475E-06  nbox= 15

     End of Laue-RISM calculation


     convergence has been achieved in    70 iterations


     solvent charge   -1.00034, renormalised to   -1.00000

     Total number of solvent (in expand-cell)
     H2O         1129.602033
     K+            20.077095
     OH-           21.077378

     Total charge of solvent (in expand-cell)
     H2O           -0.000416 e
     K+            20.077095 e
     OH-          -21.077021 e
     Total         -1.000342 e

     Chemical potential of solvation (in expand-cell)
     H2O        GaussFluct  -0.425937E+02 kcal/mol
     K+         GaussFluct  -0.224074E+04 kcal/mol
     OH-        GaussFluct   0.221907E+04 kcal/mol
     Total      GaussFluct  -0.642620E+02 kcal/mol


     total cpu time spent up to now is     1717.7 secs

     total energy              =     -35.23737243 Ry
     estimated scf accuracy    <       0.00015414 Ry

     iteration # 11     ecut=    40.00 Ry     beta= 0.10
     Davidson diagonalization with overlap
     ethr =  8.43E-07,  avg # of iterations =  2.0

     negative rho (up, down):  6.876E-03 0.000E+00

     Laue-RISM Calculation

     convergence threshold    = 1.000E-06
     iter. #     1  RMS(g-h-1)= 3.150E-05  nbox=  0
     iter. #    11  RMS(g-h-1)= 3.898E-06  nbox= 10
     iter. #    21  RMS(g-h-1)= 1.706E-06  nbox= 20
     iter. #    31  RMS(g-h-1)= 1.454E-06  nbox= 20
     iter. #    41  RMS(g-h-1)= 1.321E-06  nbox=  6
     iter. #    51  RMS(g-h-1)= 1.244E-06  nbox= 16
     iter. #    61  RMS(g-h-1)= 1.194E-06  nbox= 10
     iter. #    71  RMS(g-h-1)= 1.182E-06  nbox=  4
     iter. #    81  RMS(g-h-1)= 1.177E-06  nbox= 14
     iter. #    91  RMS(g-h-1)= 1.175E-06  nbox=  8
     iter. #   101  RMS(g-h-1)= 1.173E-06  nbox=  2
     iter. #   111  RMS(g-h-1)= 1.171E-06  nbox= 12
     iter. #   121  RMS(g-h-1)= 1.167E-06  nbox=  6
     iter. #   131  RMS(g-h-1)= 1.160E-06  nbox= 16
     iter. #   141  RMS(g-h-1)= 1.156E-06  nbox= 10
     iter. #   151  RMS(g-h-1)= 1.148E-06  nbox=  4
     iter. #   161  RMS(g-h-1)= 1.137E-06  nbox= 14
     iter. #   171  RMS(g-h-1)= 1.127E-06  nbox=  8
     iter. #   181  RMS(g-h-1)= 1.119E-06  nbox=  2
     iter. #   191  RMS(g-h-1)= 1.107E-06  nbox= 12
     iter. #   201  RMS(g-h-1)= 1.095E-06  nbox=  6
     iter. #   211  RMS(g-h-1)= 1.078E-06  nbox= 16
     iter. #   221  RMS(g-h-1)= 1.065E-06  nbox= 10
     iter. #   231  RMS(g-h-1)= 1.054E-06  nbox=  4
     iter. #   241  RMS(g-h-1)= 1.045E-06  nbox= 14
     iter. #   251  RMS(g-h-1)= 1.037E-06  nbox=  8
     iter. #   261  RMS(g-h-1)= 1.030E-06  nbox=  2
     iter. #   271  RMS(g-h-1)= 1.022E-06  nbox= 12
     iter. #   281  RMS(g-h-1)= 1.013E-06  nbox=  6
     iter. #   291  RMS(g-h-1)= 1.004E-06  nbox= 16
     iter. #   298  RMS(g-h-1)= 1.000E-06  nbox=  7

     End of Laue-RISM calculation


     convergence has been achieved in   298 iterations


     solvent charge   -1.00044, renormalised to   -1.00000

     Total number of solvent (in expand-cell)
     H2O         1129.600641
     K+            20.077160
     OH-           21.077159

     Total charge of solvent (in expand-cell)
     H2O           -0.000434 e
     K+            20.077160 e
     OH-          -21.077162 e
     Total         -1.000435 e

     Chemical potential of solvation (in expand-cell)
     H2O        GaussFluct  -0.425703E+02 kcal/mol
     K+         GaussFluct  -0.224074E+04 kcal/mol
     OH-        GaussFluct   0.221909E+04 kcal/mol
     Total      GaussFluct  -0.642259E+02 kcal/mol


     total cpu time spent up to now is     1883.2 secs

     total energy              =     -35.23737976 Ry
     estimated scf accuracy    <       0.00000647 Ry

     iteration # 12     ecut=    40.00 Ry     beta= 0.10
     Davidson diagonalization with overlap
     ethr =  8.09E-08,  avg # of iterations =  3.0

     negative rho (up, down):  6.797E-03 0.000E+00

     Laue-RISM Calculation

     convergence threshold    = 1.000E-06
     iter. #     1  RMS(g-h-1)= 2.182E-06  nbox=  0
     iter. #    11  RMS(g-h-1)= 1.025E-06  nbox= 10
     iter. #    18  RMS(g-h-1)= 9.999E-07  nbox= 17

     End of Laue-RISM calculation


     convergence has been achieved in    18 iterations


     solvent charge   -1.00040, renormalised to   -1.00000

     Total number of solvent (in expand-cell)
     H2O         1129.600832
     K+            20.077165
     OH-           21.077134

     Total charge of solvent (in expand-cell)
     H2O           -0.000438 e
     K+            20.077165 e
     OH-          -21.077128 e
     Total         -1.000401 e

     Chemical potential of solvation (in expand-cell)
     H2O        GaussFluct  -0.425721E+02 kcal/mol
     K+         GaussFluct  -0.224074E+04 kcal/mol
     OH-        GaussFluct   0.221909E+04 kcal/mol
     Total      GaussFluct  -0.642297E+02 kcal/mol


     total cpu time spent up to now is     1896.6 secs

     total energy              =     -35.23738224 Ry
     estimated scf accuracy    <       0.00000023 Ry

     iteration # 13     ecut=    40.00 Ry     beta= 0.10
     Davidson diagonalization with overlap
     ethr =  2.93E-09,  avg # of iterations =  2.0

     negative rho (up, down):  6.761E-03 0.000E+00

     Laue-RISM Calculation

     convergence threshold    = 1.000E-06
     iter. #     1  RMS(g-h-1)= 1.208E-05  nbox=  0
     iter. #    11  RMS(g-h-1)= 1.609E-06  nbox= 10
     iter. #    21  RMS(g-h-1)= 1.068E-06  nbox= 20
     iter. #    31  RMS(g-h-1)= 1.010E-06  nbox= 20
     iter. #    40  RMS(g-h-1)= 9.993E-07  nbox=  8

     End of Laue-RISM calculation


     convergence has been achieved in    40 iterations


     solvent charge   -1.00054, renormalised to   -1.00000

     Total number of solvent (in expand-cell)
     H2O         1129.601170
     K+            20.077148
     OH-           21.077186

     Total charge of solvent (in expand-cell)
     H2O           -0.000437 e
     K+            20.077148 e
     OH-          -21.077249 e
     Total         -1.000538 e

     Chemical potential of solvation (in expand-cell)
     H2O        GaussFluct  -0.425793E+02 kcal/mol
     K+         GaussFluct  -0.224074E+04 kcal/mol
     OH-        GaussFluct   0.221908E+04 kcal/mol
     Total      GaussFluct  -0.642374E+02 kcal/mol


     total cpu time spent up to now is     1922.6 secs

     total energy              =     -35.23738272 Ry
     estimated scf accuracy    <       0.00000027 Ry

     iteration # 14     ecut=    40.00 Ry     beta= 0.10
     Davidson diagonalization with overlap
     ethr =  2.93E-09,  avg # of iterations =  3.0

     negative rho (up, down):  6.751E-03 0.000E+00

     Laue-RISM Calculation

     convergence threshold    = 1.000E-06
     iter. #     1  RMS(g-h-1)= 8.998E-06  nbox=  0
     iter. #    11  RMS(g-h-1)= 1.468E-06  nbox= 10
     iter. #    21  RMS(g-h-1)= 1.039E-06  nbox= 20
     iter. #    31  RMS(g-h-1)= 1.000E-06  nbox= 20
     iter. #    32  RMS(g-h-1)= 9.998E-07  nbox= 20

     End of Laue-RISM calculation


     convergence has been achieved in    32 iterations


     solvent charge   -1.00028, renormalised to   -1.00000

     Total number of solvent (in expand-cell)
     H2O         1129.601286
     K+            20.077166
     OH-           21.077074

     Total charge of solvent (in expand-cell)
     H2O           -0.000415 e
     K+            20.077166 e
     OH-          -21.077031 e
     Total         -1.000280 e

     Chemical potential of solvation (in expand-cell)
     H2O        GaussFluct  -0.425771E+02 kcal/mol
     K+         GaussFluct  -0.224074E+04 kcal/mol
     OH-        GaussFluct   0.221908E+04 kcal/mol
     Total      GaussFluct  -0.642383E+02 kcal/mol


     total cpu time spent up to now is     1944.6 secs

     total energy              =     -35.23738240 Ry
     estimated scf accuracy    <       0.00000022 Ry

     iteration # 15     ecut=    40.00 Ry     beta= 0.10
     Davidson diagonalization with overlap
     ethr =  2.69E-09,  avg # of iterations =  2.0

     negative rho (up, down):  7.639E-03 0.000E+00

     Laue-RISM Calculation

     convergence threshold    = 1.000E-06
     iter. #     1  RMS(g-h-1)= 1.162E-06  nbox=  0
     iter. #     7  RMS(g-h-1)= 9.975E-07  nbox=  6

     End of Laue-RISM calculation


     convergence has been achieved in     7 iterations


     solvent charge   -1.00029, renormalised to   -1.00000

     Total number of solvent (in expand-cell)
     H2O         1129.601318
     K+            20.077167
     OH-           21.077073

     Total charge of solvent (in expand-cell)
     H2O           -0.000423 e
     K+            20.077167 e
     OH-          -21.077033 e
     Total         -1.000289 e

     Chemical potential of solvation (in expand-cell)
     H2O        GaussFluct  -0.425773E+02 kcal/mol
     K+         GaussFluct  -0.224074E+04 kcal/mol
     OH-        GaussFluct   0.221908E+04 kcal/mol
     Total      GaussFluct  -0.642387E+02 kcal/mol


     total cpu time spent up to now is     1951.7 secs

     End of self-consistent calculation

          k = 0.0000 0.0000 0.0000 (115195 PWs)   bands (ev):

   -30.1023 -20.0456 -13.8326 -10.9972  -1.2358  -0.2117   0.1247   0.1316

     the Fermi energy is    -6.7466 ev

!    total energy              =     -35.23738176 Ry
     estimated scf accuracy    <          6.3E-10 Ry
     smearing contrib. (-TS)   =      -0.00000000 Ry
     internal energy E=F+TS    =     -35.23738176 Ry

     The total energy is F=E-TS. E is the sum of the following terms:
     one-electron contribution =     -77.88117656 Ry
     hartree contribution      =      37.75890210 Ry
     xc contribution           =      -9.00601850 Ry
     ewald contribution        =      14.09579007 Ry
     solvation energy (RISM)   =      -0.20487887 Ry

     convergence has been achieved in  15 iterations

     negative rho (up, down):  7.639E-03 0.000E+00

     Forces acting on atoms (cartesian axes, Ry/au):

     atom    1 type  1   force =     0.83294413    0.68960844    0.00002008
     atom    2 type  2   force =    -0.07572172   -0.06828597    0.10858055
     atom    3 type  2   force =    -0.07572249   -0.06828634   -0.10857896
     atom    4 type  2   force =    -0.68149992   -0.55303613    0.00000066

     Total force =     1.408552     Total SCF correction =     0.000086

     BFGS Geometry Optimization
     Energy error            =      2.0E+00 Ry
     Gradient error          =      8.3E-01 Ry/Bohr

     number of scf cycles    =   1
     number of bfgs steps    =   0

     energy             new  =     -35.2373817629 Ry

     new trust radius        =       0.5000000000 bohr
     new conv_thr            =       0.0000000100 Ry


ATOMIC_POSITIONS (angstrom)
O                0.2038044610        0.1687331378        0.0000049134
H                0.5814724367        0.5832918136        0.6265674493
H                0.5814722501        0.5832917233       -0.6265670600
H               -0.7667491478       -0.6353166746        0.0000001621



     Writing config-only to output data dir ./output/opt.save/ :
     XML data file
     NEW-OLD atomic charge density approx. for the potential

     negative rho (up, down):  7.345E-03 0.000E+00

     Laue-RISM Calculation

     convergence threshold    = 6.310E-06
     iter. #     1  RMS(g-h-1)= 2.954E-01  nbox=  0
     iter. #    11  RMS(g-h-1)= 1.803E-02  nbox= 10
     iter. #    21  RMS(g-h-1)= 1.251E-02  nbox= 20
     iter. #    31  RMS(g-h-1)= 5.680E-03  nbox= 20
     iter. #    41  RMS(g-h-1)= 2.952E-03  nbox= 20
     iter. #    51  RMS(g-h-1)= 2.513E-03  nbox= 20
     iter. #    61  RMS(g-h-1)= 1.678E-03  nbox= 20
     iter. #    71  RMS(g-h-1)= 1.205E-03  nbox= 20
     iter. #    81  RMS(g-h-1)= 9.892E-04  nbox= 20
     iter. #    91  RMS(g-h-1)= 7.601E-04  nbox= 10
     iter. #   101  RMS(g-h-1)= 4.173E-04  nbox= 20
     iter. #   111  RMS(g-h-1)= 2.732E-04  nbox= 20
     iter. #   121  RMS(g-h-1)= 2.108E-04  nbox= 20
     iter. #   131  RMS(g-h-1)= 1.490E-04  nbox= 20
     iter. #   141  RMS(g-h-1)= 1.068E-04  nbox= 20
     iter. #   151  RMS(g-h-1)= 8.247E-05  nbox= 20
     iter. #   161  RMS(g-h-1)= 6.575E-05  nbox= 20
     iter. #   171  RMS(g-h-1)= 5.275E-05  nbox= 20
     iter. #   181  RMS(g-h-1)= 4.258E-05  nbox= 20
     iter. #   191  RMS(g-h-1)= 4.018E-05  nbox= 20
     iter. #   201  RMS(g-h-1)= 3.621E-05  nbox=  5
     iter. #   211  RMS(g-h-1)= 2.850E-05  nbox= 15
     iter. #   221  RMS(g-h-1)= 2.372E-05  nbox=  9
     iter. #   231  RMS(g-h-1)= 1.853E-05  nbox=  3
     iter. #   241  RMS(g-h-1)= 1.539E-05  nbox= 13
     iter. #   251  RMS(g-h-1)= 1.392E-05  nbox=  7
     iter. #   261  RMS(g-h-1)= 1.283E-05  nbox= 17
     iter. #   271  RMS(g-h-1)= 1.206E-05  nbox= 11
     iter. #   281  RMS(g-h-1)= 1.135E-05  nbox=  5
     iter. #   291  RMS(g-h-1)= 1.058E-05  nbox= 15
     iter. #   301  RMS(g-h-1)= 1.007E-05  nbox=  9
     iter. #   311  RMS(g-h-1)= 9.438E-06  nbox=  3
     iter. #   321  RMS(g-h-1)= 8.995E-06  nbox= 13
     iter. #   331  RMS(g-h-1)= 8.641E-06  nbox=  7
     iter. #   341  RMS(g-h-1)= 8.454E-06  nbox= 17
     iter. #   351  RMS(g-h-1)= 8.158E-06  nbox= 11
     iter. #   361  RMS(g-h-1)= 8.056E-06  nbox=  5
     iter. #   371  RMS(g-h-1)= 7.494E-06  nbox= 15
     iter. #   381  RMS(g-h-1)= 7.226E-06  nbox=  9
     iter. #   391  RMS(g-h-1)= 6.989E-06  nbox=  3
     iter. #   401  RMS(g-h-1)= 6.760E-06  nbox= 13
     iter. #   411  RMS(g-h-1)= 6.649E-06  nbox=  7
     iter. #   421  RMS(g-h-1)= 6.613E-06  nbox= 17
     iter. #   428  RMS(g-h-1)= 6.278E-06  nbox=  8

     End of Laue-RISM calculation


     convergence has been achieved in   428 iterations


     solvent charge   -1.00057, renormalised to   -1.00000

     Total number of solvent (in expand-cell)
     H2O         1129.403945
     K+            20.078068
     OH-           21.078440

     Total charge of solvent (in expand-cell)
     H2O           -0.000252 e
     K+            20.078068 e
     OH-          -21.078391 e
     Total         -1.000575 e

     Chemical potential of solvation (in expand-cell)
     H2O        GaussFluct  -0.387743E+02 kcal/mol
     K+         GaussFluct  -0.224086E+04 kcal/mol
     OH-        GaussFluct   0.222107E+04 kcal/mol
     Total      GaussFluct  -0.585629E+02 kcal/mol


     total cpu time spent up to now is     2196.4 secs

     Self-consistent Calculation

     iteration #  1     ecut=    40.00 Ry     beta= 0.10
     Davidson diagonalization with overlap
     c_bands:  1 eigenvalues not converged
     ethr =  1.00E-06,  avg # of iterations = 20.0

     negative rho (up, down):  6.691E-03 0.000E+00

     Laue-RISM Calculation

     convergence threshold    = 6.310E-06
     iter. #     1  RMS(g-h-1)= 1.717E-03  nbox=  0
     iter. #    11  RMS(g-h-1)= 2.435E-04  nbox= 10
     iter. #    21  RMS(g-h-1)= 7.725E-05  nbox= 20
     iter. #    31  RMS(g-h-1)= 4.839E-05  nbox= 20
     iter. #    41  RMS(g-h-1)= 3.310E-05  nbox= 20
     iter. #    51  RMS(g-h-1)= 2.343E-05  nbox= 20
     iter. #    61  RMS(g-h-1)= 1.888E-05  nbox= 20
     iter. #    71  RMS(g-h-1)= 1.768E-05  nbox= 20
     iter. #    81  RMS(g-h-1)= 1.304E-05  nbox= 10
     iter. #    91  RMS(g-h-1)= 8.922E-06  nbox= 20
     iter. #   101  RMS(g-h-1)= 7.794E-06  nbox= 20
     iter. #   111  RMS(g-h-1)= 7.215E-06  nbox=  7
     iter. #   121  RMS(g-h-1)= 6.640E-06  nbox= 17
     iter. #   129  RMS(g-h-1)= 6.263E-06  nbox=  9

     End of Laue-RISM calculation


     convergence has been achieved in   129 iterations


     solvent charge   -1.00177, renormalised to   -1.00000

     Total number of solvent (in expand-cell)
     H2O         1129.400829
     K+            20.077825
     OH-           21.078873

     Total charge of solvent (in expand-cell)
     H2O           -0.000286 e
     K+            20.077825 e
     OH-          -21.079304 e
     Total         -1.001766 e

     Chemical potential of solvation (in expand-cell)
     H2O        GaussFluct  -0.386055E+02 kcal/mol
     K+         GaussFluct  -0.224085E+04 kcal/mol
     OH-        GaussFluct   0.222135E+04 kcal/mol
     Total      GaussFluct  -0.581042E+02 kcal/mol


     total cpu time spent up to now is     2273.8 secs

     total energy              =     -35.33193328 Ry
     estimated scf accuracy    <       0.21740308 Ry

     iteration #  2     ecut=    40.00 Ry     beta= 0.10
     Davidson diagonalization with overlap
     ethr =  2.72E-03,  avg # of iterations =  1.0

     negative rho (up, down):  1.227E-02 0.000E+00

     Laue-RISM Calculation

     convergence threshold    = 6.310E-06
     iter. #     1  RMS(g-h-1)= 9.538E-03  nbox=  0
     iter. #    11  RMS(g-h-1)= 1.492E-03  nbox= 10
     iter. #    21  RMS(g-h-1)= 7.260E-04  nbox= 20
     iter. #    31  RMS(g-h-1)= 3.568E-04  nbox= 20
     iter. #    41  RMS(g-h-1)= 2.640E-04  nbox= 20
     iter. #    51  RMS(g-h-1)= 1.786E-04  nbox= 20
     iter. #    61  RMS(g-h-1)= 1.344E-04  nbox= 20
     iter. #    71  RMS(g-h-1)= 1.187E-04  nbox= 20
     iter. #    81  RMS(g-h-1)= 9.960E-05  nbox= 20
     iter. #    91  RMS(g-h-1)= 9.320E-05  nbox=  2
     iter. #   101  RMS(g-h-1)= 6.809E-05  nbox= 12
     iter. #   111  RMS(g-h-1)= 4.186E-05  nbox= 20
     iter. #   121  RMS(g-h-1)= 3.251E-05  nbox= 20
     iter. #   131  RMS(g-h-1)= 3.006E-05  nbox= 20
     iter. #   141  RMS(g-h-1)= 2.622E-05  nbox= 11
     iter. #   151  RMS(g-h-1)= 2.050E-05  nbox= 20
     iter. #   161  RMS(g-h-1)= 1.870E-05  nbox=  2
     iter. #   171  RMS(g-h-1)= 1.589E-05  nbox= 12
     iter. #   181  RMS(g-h-1)= 1.485E-05  nbox=  6
     iter. #   191  RMS(g-h-1)= 1.365E-05  nbox= 16
     iter. #   201  RMS(g-h-1)= 1.274E-05  nbox= 10
     iter. #   211  RMS(g-h-1)= 1.180E-05  nbox=  4
     iter. #   221  RMS(g-h-1)= 1.104E-05  nbox= 14
     iter. #   231  RMS(g-h-1)= 1.033E-05  nbox=  8
     iter. #   241  RMS(g-h-1)= 9.941E-06  nbox=  2
     iter. #   251  RMS(g-h-1)= 9.263E-06  nbox= 12
     iter. #   261  RMS(g-h-1)= 8.838E-06  nbox=  6
     iter. #   271  RMS(g-h-1)= 8.399E-06  nbox= 16
     iter. #   281  RMS(g-h-1)= 8.050E-06  nbox= 10
     iter. #   291  RMS(g-h-1)= 7.763E-06  nbox=  4
     iter. #   301  RMS(g-h-1)= 7.400E-06  nbox= 14
     iter. #   311  RMS(g-h-1)= 7.008E-06  nbox=  8
     iter. #   321  RMS(g-h-1)= 6.775E-06  nbox=  2
     iter. #   331  RMS(g-h-1)= 6.591E-06  nbox= 12
     iter. #   341  RMS(g-h-1)= 6.385E-06  nbox=  6
     iter. #   351  RMS(g-h-1)= 6.315E-06  nbox= 16
     iter. #   352  RMS(g-h-1)= 6.287E-06  nbox= 17

     End of Laue-RISM calculation


     convergence has been achieved in   352 iterations


     solvent charge   -1.00069, renormalised to   -1.00000

     Total number of solvent (in expand-cell)
     H2O         1129.489268
     K+            20.077162
     OH-           21.077677

     Total charge of solvent (in expand-cell)
     H2O           -0.000189 e
     K+            20.077162 e
     OH-          -21.077667 e
     Total         -1.000694 e

     Chemical potential of solvation (in expand-cell)
     H2O        GaussFluct  -0.401808E+02 kcal/mol
     K+         GaussFluct  -0.224080E+04 kcal/mol
     OH-        GaussFluct   0.222105E+04 kcal/mol
     Total      GaussFluct  -0.599343E+02 kcal/mol


     total cpu time spent up to now is     2473.7 secs

     total energy              =     -35.25617203 Ry
     estimated scf accuracy    <       0.15870837 Ry

     iteration #  3     ecut=    40.00 Ry     beta= 0.10
     Davidson diagonalization with overlap
     ethr =  1.98E-03,  avg # of iterations =  2.0

     negative rho (up, down):  1.256E-02 0.000E+00

     Laue-RISM Calculation

     convergence threshold    = 4.201E-06
     iter. #     1  RMS(g-h-1)= 8.550E-04  nbox=  0
     iter. #    11  RMS(g-h-1)= 8.293E-05  nbox= 10
     iter. #    21  RMS(g-h-1)= 3.112E-05  nbox= 20
     iter. #    31  RMS(g-h-1)= 1.843E-05  nbox= 20
     iter. #    41  RMS(g-h-1)= 1.297E-05  nbox= 20
     iter. #    51  RMS(g-h-1)= 1.155E-05  nbox= 20
     iter. #    61  RMS(g-h-1)= 1.017E-05  nbox= 10
     iter. #    71  RMS(g-h-1)= 7.386E-06  nbox= 20
     iter. #    81  RMS(g-h-1)= 6.559E-06  nbox= 20
     iter. #    91  RMS(g-h-1)= 5.991E-06  nbox=  9
     iter. #   101  RMS(g-h-1)= 5.745E-06  nbox=  3
     iter. #   111  RMS(g-h-1)= 5.572E-06  nbox= 13
     iter. #   121  RMS(g-h-1)= 5.447E-06  nbox=  7
     iter. #   131  RMS(g-h-1)= 5.304E-06  nbox= 17
     iter. #   141  RMS(g-h-1)= 5.110E-06  nbox= 11
     iter. #   151  RMS(g-h-1)= 5.007E-06  nbox=  5
     iter. #   161  RMS(g-h-1)= 4.988E-06  nbox= 15
     iter. #   171  RMS(g-h-1)= 4.720E-06  nbox=  9
     iter. #   181  RMS(g-h-1)= 4.510E-06  nbox=  3
     iter. #   191  RMS(g-h-1)= 4.441E-06  nbox= 13
     iter. #   201  RMS(g-h-1)= 4.375E-06  nbox=  7
     iter. #   211  RMS(g-h-1)= 4.388E-06  nbox= 17
     iter. #   221  RMS(g-h-1)= 4.266E-06  nbox= 11
     iter. #   231  RMS(g-h-1)= 4.209E-06  nbox=  5
     iter. #   232  RMS(g-h-1)= 4.188E-06  nbox=  6

     End of Laue-RISM calculation


     convergence has been achieved in   232 iterations


     solvent charge   -1.00072, renormalised to   -1.00000

     Total number of solvent (in expand-cell)
     H2O         1129.501452
     K+            20.077409
     OH-           21.077973

     Total charge of solvent (in expand-cell)
     H2O           -0.000180 e
     K+            20.077409 e
     OH-          -21.077946 e
     Total         -1.000717 e

     Chemical potential of solvation (in expand-cell)
     H2O        GaussFluct  -0.403948E+02 kcal/mol
     K+         GaussFluct  -0.224079E+04 kcal/mol
     OH-        GaussFluct   0.222093E+04 kcal/mol
     Total      GaussFluct  -0.602595E+02 kcal/mol


     total cpu time spent up to now is     2603.1 secs

     total energy              =     -35.27642595 Ry
     estimated scf accuracy    <       0.00724395 Ry

     iteration #  4     ecut=    40.00 Ry     beta= 0.10
     Davidson diagonalization with overlap
     ethr =  9.05E-05,  avg # of iterations =  2.0

     negative rho (up, down):  1.290E-02 0.000E+00

     Laue-RISM Calculation

     convergence threshold    = 2.607E-06
     iter. #     1  RMS(g-h-1)= 7.717E-04  nbox=  0
     iter. #    11  RMS(g-h-1)= 1.065E-04  nbox= 10
     iter. #    21  RMS(g-h-1)= 3.430E-05  nbox= 20
     iter. #    31  RMS(g-h-1)= 1.868E-05  nbox= 20
     iter. #    41  RMS(g-h-1)= 1.339E-05  nbox= 20
     iter. #    51  RMS(g-h-1)= 1.068E-05  nbox= 20
     iter. #    61  RMS(g-h-1)= 8.816E-06  nbox= 20
     iter. #    71  RMS(g-h-1)= 8.113E-06  nbox= 20
     iter. #    81  RMS(g-h-1)= 7.025E-06  nbox= 20
     iter. #    91  RMS(g-h-1)= 5.639E-06  nbox= 20
     iter. #   101  RMS(g-h-1)= 5.166E-06  nbox= 20
     iter. #   111  RMS(g-h-1)= 4.898E-06  nbox=  8
     iter. #   121  RMS(g-h-1)= 4.690E-06  nbox=  2
     iter. #   131  RMS(g-h-1)= 4.473E-06  nbox= 12
     iter. #   141  RMS(g-h-1)= 4.289E-06  nbox=  6
     iter. #   151  RMS(g-h-1)= 4.175E-06  nbox= 16
     iter. #   161  RMS(g-h-1)= 4.064E-06  nbox= 10
     iter. #   171  RMS(g-h-1)= 3.963E-06  nbox=  4
     iter. #   181  RMS(g-h-1)= 3.899E-06  nbox= 14
     iter. #   191  RMS(g-h-1)= 3.813E-06  nbox=  8
     iter. #   201  RMS(g-h-1)= 3.707E-06  nbox=  2
     iter. #   211  RMS(g-h-1)= 3.627E-06  nbox= 12
     iter. #   221  RMS(g-h-1)= 3.534E-06  nbox=  6
     iter. #   231  RMS(g-h-1)= 3.446E-06  nbox= 16
     iter. #   241  RMS(g-h-1)= 3.387E-06  nbox= 10
     iter. #   251  RMS(g-h-1)= 3.324E-06  nbox=  4
     iter. #   261  RMS(g-h-1)= 3.206E-06  nbox= 14
     iter. #   271  RMS(g-h-1)= 3.171E-06  nbox=  8
     iter. #   281  RMS(g-h-1)= 3.108E-06  nbox=  2
     iter. #   291  RMS(g-h-1)= 3.055E-06  nbox= 12
     iter. #   301  RMS(g-h-1)= 3.015E-06  nbox=  6
     iter. #   311  RMS(g-h-1)= 2.980E-06  nbox= 16
     iter. #   321  RMS(g-h-1)= 2.927E-06  nbox= 10
     iter. #   331  RMS(g-h-1)= 2.876E-06  nbox=  4
     iter. #   341  RMS(g-h-1)= 2.806E-06  nbox= 14
     iter. #   351  RMS(g-h-1)= 2.771E-06  nbox=  8
     iter. #   361  RMS(g-h-1)= 2.722E-06  nbox=  2
     iter. #   371  RMS(g-h-1)= 2.656E-06  nbox= 12
     iter. #   381  RMS(g-h-1)= 2.610E-06  nbox=  6
     iter. #   382  RMS(g-h-1)= 2.602E-06  nbox=  7

     End of Laue-RISM calculation


     convergence has been achieved in   382 iterations


     solvent charge   -1.00077, renormalised to   -1.00000

     Total number of solvent (in expand-cell)
     H2O         1129.524576
     K+            20.077481
     OH-           21.078063

     Total charge of solvent (in expand-cell)
     H2O           -0.000188 e
     K+            20.077481 e
     OH-          -21.078059 e
     Total         -1.000766 e

     Chemical potential of solvation (in expand-cell)
     H2O        GaussFluct  -0.408419E+02 kcal/mol
     K+         GaussFluct  -0.224078E+04 kcal/mol
     OH-        GaussFluct   0.222071E+04 kcal/mol
     Total      GaussFluct  -0.609176E+02 kcal/mol


     total cpu time spent up to now is     2816.8 secs

     total energy              =     -35.27761565 Ry
     estimated scf accuracy    <       0.00123257 Ry

     iteration #  5     ecut=    40.00 Ry     beta= 0.10
     Davidson diagonalization with overlap
     ethr =  1.54E-05,  avg # of iterations =  2.0

     negative rho (up, down):  1.363E-02 0.000E+00

     Laue-RISM Calculation

     convergence threshold    = 1.974E-06
     iter. #     1  RMS(g-h-1)= 6.112E-04  nbox=  0
     iter. #    11  RMS(g-h-1)= 6.505E-05  nbox= 10
     iter. #    21  RMS(g-h-1)= 2.605E-05  nbox= 20
     iter. #    31  RMS(g-h-1)= 1.345E-05  nbox= 20
     iter. #    41  RMS(g-h-1)= 1.036E-05  nbox= 20
     iter. #    51  RMS(g-h-1)= 8.800E-06  nbox= 20
     iter. #    61  RMS(g-h-1)= 6.992E-06  nbox= 20
     iter. #    71  RMS(g-h-1)= 6.454E-06  nbox=  4
     iter. #    81  RMS(g-h-1)= 4.646E-06  nbox= 14
     iter. #    91  RMS(g-h-1)= 3.819E-06  nbox= 20
     iter. #   101  RMS(g-h-1)= 3.137E-06  nbox=  6
     iter. #   111  RMS(g-h-1)= 2.967E-06  nbox= 16
     iter. #   121  RMS(g-h-1)= 2.872E-06  nbox= 10
     iter. #   131  RMS(g-h-1)= 2.793E-06  nbox=  4
     iter. #   141  RMS(g-h-1)= 2.726E-06  nbox= 14
     iter. #   151  RMS(g-h-1)= 2.671E-06  nbox=  8
     iter. #   161  RMS(g-h-1)= 2.621E-06  nbox=  2
     iter. #   171  RMS(g-h-1)= 2.571E-06  nbox= 12
     iter. #   181  RMS(g-h-1)= 2.519E-06  nbox=  6
     iter. #   191  RMS(g-h-1)= 2.474E-06  nbox= 16
     iter. #   201  RMS(g-h-1)= 2.431E-06  nbox= 10
     iter. #   211  RMS(g-h-1)= 2.396E-06  nbox=  4
     iter. #   221  RMS(g-h-1)= 2.373E-06  nbox= 14
     iter. #   231  RMS(g-h-1)= 2.330E-06  nbox=  8
     iter. #   241  RMS(g-h-1)= 2.306E-06  nbox=  2
     iter. #   251  RMS(g-h-1)= 2.252E-06  nbox= 12
     iter. #   261  RMS(g-h-1)= 2.399E-06  nbox=  6
     iter. #   271  RMS(g-h-1)= 2.344E-06  nbox= 16
     iter. #   281  RMS(g-h-1)= 2.285E-06  nbox= 10
     iter. #   291  RMS(g-h-1)= 2.149E-06  nbox=  4
     iter. #   301  RMS(g-h-1)= 2.112E-06  nbox= 14
     iter. #   311  RMS(g-h-1)= 2.089E-06  nbox=  8
     iter. #   321  RMS(g-h-1)= 2.067E-06  nbox=  2
     iter. #   331  RMS(g-h-1)= 2.031E-06  nbox= 12
     iter. #   341  RMS(g-h-1)= 2.005E-06  nbox=  6
     iter. #   351  RMS(g-h-1)= 1.978E-06  nbox= 16
     iter. #   352  RMS(g-h-1)= 1.973E-06  nbox= 17

     End of Laue-RISM calculation


     convergence has been achieved in   352 iterations


     solvent charge   -1.00082, renormalised to   -1.00000

     Total number of solvent (in expand-cell)
     H2O         1129.555536
     K+            20.077798
     OH-           21.078439

     Total charge of solvent (in expand-cell)
     H2O           -0.000187 e
     K+            20.077798 e
     OH-          -21.078433 e
     Total         -1.000823 e

     Chemical potential of solvation (in expand-cell)
     H2O        GaussFluct  -0.412776E+02 kcal/mol
     K+         GaussFluct  -0.224077E+04 kcal/mol
     OH-        GaussFluct   0.222050E+04 kcal/mol
     Total      GaussFluct  -0.615531E+02 kcal/mol


     total cpu time spent up to now is     3012.9 secs

     total energy              =     -35.27796447 Ry
     estimated scf accuracy    <       0.00043914 Ry

     iteration #  6     ecut=    40.00 Ry     beta= 0.10
     Davidson diagonalization with overlap
     ethr =  5.49E-06,  avg # of iterations =  5.0

     negative rho (up, down):  1.288E-02 0.000E+00

     Laue-RISM Calculation

     convergence threshold    = 1.854E-06
     iter. #     1  RMS(g-h-1)= 3.783E-04  nbox=  0
     iter. #    11  RMS(g-h-1)= 4.659E-05  nbox= 10
     iter. #    21  RMS(g-h-1)= 1.373E-05  nbox= 20
     iter. #    31  RMS(g-h-1)= 8.175E-06  nbox= 20
     iter. #    41  RMS(g-h-1)= 5.574E-06  nbox= 20
     iter. #    51  RMS(g-h-1)= 4.671E-06  nbox= 20
     iter. #    61  RMS(g-h-1)= 3.929E-06  nbox=  4
     iter. #    71  RMS(g-h-1)= 2.860E-06  nbox= 14
     iter. #    81  RMS(g-h-1)= 2.318E-06  nbox= 20
     iter. #    91  RMS(g-h-1)= 2.147E-06  nbox=  5
     iter. #   101  RMS(g-h-1)= 2.021E-06  nbox= 15
     iter. #   111  RMS(g-h-1)= 1.966E-06  nbox=  9
     iter. #   121  RMS(g-h-1)= 1.929E-06  nbox=  3
     iter. #   131  RMS(g-h-1)= 1.915E-06  nbox= 13
     iter. #   141  RMS(g-h-1)= 1.896E-06  nbox=  7
     iter. #   151  RMS(g-h-1)= 1.871E-06  nbox= 17
     iter. #   159  RMS(g-h-1)= 1.851E-06  nbox=  9

     End of Laue-RISM calculation


     convergence has been achieved in   159 iterations


     solvent charge   -1.00090, renormalised to   -1.00000

     Total number of solvent (in expand-cell)
     H2O         1129.557762
     K+            20.077955
     OH-           21.078642

     Total charge of solvent (in expand-cell)
     H2O           -0.000185 e
     K+            20.077955 e
     OH-          -21.078670 e
     Total         -1.000900 e

     Chemical potential of solvation (in expand-cell)
     H2O        GaussFluct  -0.412568E+02 kcal/mol
     K+         GaussFluct  -0.224077E+04 kcal/mol
     OH-        GaussFluct   0.222051E+04 kcal/mol
     Total      GaussFluct  -0.615209E+02 kcal/mol


     total cpu time spent up to now is     3104.3 secs

     total energy              =     -35.27788537 Ry
     estimated scf accuracy    <       0.00034788 Ry

     iteration #  7     ecut=    40.00 Ry     beta= 0.10
     Davidson diagonalization with overlap
     ethr =  4.35E-06,  avg # of iterations =  2.0

     negative rho (up, down):  1.183E-02 0.000E+00

     Laue-RISM Calculation

     convergence threshold    = 1.000E-06
     iter. #     1  RMS(g-h-1)= 7.752E-05  nbox=  0
     iter. #    11  RMS(g-h-1)= 9.409E-06  nbox= 10
     iter. #    21  RMS(g-h-1)= 3.191E-06  nbox= 20
     iter. #    31  RMS(g-h-1)= 2.373E-06  nbox= 20
     iter. #    41  RMS(g-h-1)= 2.062E-06  nbox= 20
     iter. #    51  RMS(g-h-1)= 1.991E-06  nbox=  2
     iter. #    61  RMS(g-h-1)= 1.887E-06  nbox= 12
     iter. #    71  RMS(g-h-1)= 1.834E-06  nbox=  6
     iter. #    81  RMS(g-h-1)= 1.817E-06  nbox= 16
     iter. #    91  RMS(g-h-1)= 1.807E-06  nbox= 10
     iter. #   101  RMS(g-h-1)= 1.794E-06  nbox=  4
     iter. #   111  RMS(g-h-1)= 1.779E-06  nbox= 14
     iter. #   121  RMS(g-h-1)= 1.770E-06  nbox=  8
     iter. #   131  RMS(g-h-1)= 1.744E-06  nbox=  2
     iter. #   141  RMS(g-h-1)= 1.717E-06  nbox= 12
     iter. #   151  RMS(g-h-1)= 1.698E-06  nbox=  6
     iter. #   161  RMS(g-h-1)= 1.657E-06  nbox= 16
     iter. #   171  RMS(g-h-1)= 1.621E-06  nbox= 10
     iter. #   181  RMS(g-h-1)= 1.584E-06  nbox=  4
     iter. #   191  RMS(g-h-1)= 1.553E-06  nbox= 14
     iter. #   201  RMS(g-h-1)= 1.521E-06  nbox=  8
     iter. #   211  RMS(g-h-1)= 1.501E-06  nbox=  2
     iter. #   221  RMS(g-h-1)= 1.483E-06  nbox= 12
     iter. #   231  RMS(g-h-1)= 1.464E-06  nbox=  6
     iter. #   241  RMS(g-h-1)= 1.451E-06  nbox= 16
     iter. #   251  RMS(g-h-1)= 1.438E-06  nbox= 10
     iter. #   261  RMS(g-h-1)= 1.428E-06  nbox=  4
     iter. #   271  RMS(g-h-1)= 1.422E-06  nbox= 14
     iter. #   281  RMS(g-h-1)= 1.413E-06  nbox=  8
     iter. #   291  RMS(g-h-1)= 1.406E-06  nbox=  2
     iter. #   301  RMS(g-h-1)= 1.400E-06  nbox= 12
     iter. #   311  RMS(g-h-1)= 1.393E-06  nbox=  6
     iter. #   321  RMS(g-h-1)= 1.382E-06  nbox= 16
     iter. #   331  RMS(g-h-1)= 1.363E-06  nbox= 10
     iter. #   341  RMS(g-h-1)= 1.344E-06  nbox=  4
     iter. #   351  RMS(g-h-1)= 1.324E-06  nbox= 14
     iter. #   361  RMS(g-h-1)= 1.322E-06  nbox=  8
     iter. #   371  RMS(g-h-1)= 1.301E-06  nbox=  2
     iter. #   381  RMS(g-h-1)= 1.288E-06  nbox= 12
     iter. #   391  RMS(g-h-1)= 1.273E-06  nbox=  6
     iter. #   401  RMS(g-h-1)= 1.263E-06  nbox= 16
     iter. #   411  RMS(g-h-1)= 1.256E-06  nbox= 10
     iter. #   421  RMS(g-h-1)= 1.248E-06  nbox=  4
     iter. #   431  RMS(g-h-1)= 1.240E-06  nbox= 14
     iter. #   441  RMS(g-h-1)= 1.233E-06  nbox=  8
     iter. #   451  RMS(g-h-1)= 1.227E-06  nbox=  2
     iter. #   461  RMS(g-h-1)= 1.217E-06  nbox= 12
     iter. #   471  RMS(g-h-1)= 1.205E-06  nbox=  6
     iter. #   481  RMS(g-h-1)= 1.186E-06  nbox= 16
     iter. #   491  RMS(g-h-1)= 1.179E-06  nbox= 10
     iter. #   501  RMS(g-h-1)= 1.157E-06  nbox=  4
     iter. #   511  RMS(g-h-1)= 1.140E-06  nbox= 14
     iter. #   521  RMS(g-h-1)= 1.127E-06  nbox=  8
     iter. #   531  RMS(g-h-1)= 1.115E-06  nbox=  2
     iter. #   541  RMS(g-h-1)= 1.103E-06  nbox= 12
     iter. #   551  RMS(g-h-1)= 1.093E-06  nbox=  6
     iter. #   561  RMS(g-h-1)= 1.084E-06  nbox= 16
     iter. #   571  RMS(g-h-1)= 1.076E-06  nbox= 10
     iter. #   581  RMS(g-h-1)= 1.067E-06  nbox=  4
     iter. #   591  RMS(g-h-1)= 1.060E-06  nbox= 14
     iter. #   601  RMS(g-h-1)= 1.053E-06  nbox=  8
     iter. #   611  RMS(g-h-1)= 1.047E-06  nbox=  2
     iter. #   621  RMS(g-h-1)= 1.040E-06  nbox= 12
     iter. #   631  RMS(g-h-1)= 1.033E-06  nbox=  6
     iter. #   641  RMS(g-h-1)= 1.025E-06  nbox= 16
     iter. #   651  RMS(g-h-1)= 1.016E-06  nbox= 10
     iter. #   661  RMS(g-h-1)= 1.007E-06  nbox=  4
     iter. #   671  RMS(g-h-1)= 9.998E-07  nbox= 14

     End of Laue-RISM calculation


     convergence has been achieved in   671 iterations


     solvent charge   -1.00080, renormalised to   -1.00000

     Total number of solvent (in expand-cell)
     H2O         1129.557216
     K+            20.077928
     OH-           21.078544

     Total charge of solvent (in expand-cell)
     H2O           -0.000186 e
     K+            20.077928 e
     OH-          -21.078538 e
     Total         -1.000796 e

     Chemical potential of solvation (in expand-cell)
     H2O        GaussFluct  -0.412644E+02 kcal/mol
     K+         GaussFluct  -0.224077E+04 kcal/mol
     OH-        GaussFluct   0.222050E+04 kcal/mol
     Total      GaussFluct  -0.615338E+02 kcal/mol


     total cpu time spent up to now is     3464.3 secs

     total energy              =     -35.27792448 Ry
     estimated scf accuracy    <       0.00000862 Ry

     iteration #  8     ecut=    40.00 Ry     beta= 0.10
     Davidson diagonalization with overlap
     ethr =  1.08E-07,  avg # of iterations =  2.0

     negative rho (up, down):  1.096E-02 0.000E+00

     Laue-RISM Calculation

     convergence threshold    = 1.000E-06
     iter. #     1  RMS(g-h-1)= 6.293E-05  nbox=  0
     iter. #    11  RMS(g-h-1)= 6.235E-06  nbox= 10
     iter. #    21  RMS(g-h-1)= 2.343E-06  nbox= 20
     iter. #    31  RMS(g-h-1)= 1.546E-06  nbox= 20
     iter. #    41  RMS(g-h-1)= 1.364E-06  nbox= 20
     iter. #    51  RMS(g-h-1)= 1.295E-06  nbox=  5
     iter. #    61  RMS(g-h-1)= 1.143E-06  nbox= 15
     iter. #    71  RMS(g-h-1)= 1.054E-06  nbox=  9
     iter. #    81  RMS(g-h-1)= 1.013E-06  nbox=  3
     iter. #    90  RMS(g-h-1)= 1.000E-06  nbox= 12

     End of Laue-RISM calculation


     convergence has been achieved in    90 iterations


     solvent charge   -1.00073, renormalised to   -1.00000

     Total number of solvent (in expand-cell)
     H2O         1129.559599
     K+            20.077954
     OH-           21.078514

     Total charge of solvent (in expand-cell)
     H2O           -0.000179 e
     K+            20.077954 e
     OH-          -21.078507 e
     Total         -1.000732 e

     Chemical potential of solvation (in expand-cell)
     H2O        GaussFluct  -0.412924E+02 kcal/mol
     K+         GaussFluct  -0.224077E+04 kcal/mol
     OH-        GaussFluct   0.222049E+04 kcal/mol
     Total      GaussFluct  -0.615739E+02 kcal/mol


     total cpu time spent up to now is     3517.5 secs

     total energy              =     -35.27792252 Ry
     estimated scf accuracy    <       0.00001431 Ry

     iteration #  9     ecut=    40.00 Ry     beta= 0.10
     Davidson diagonalization with overlap
     ethr =  1.08E-07,  avg # of iterations =  2.0

     negative rho (up, down):  1.020E-02 0.000E+00

     Laue-RISM Calculation

     convergence threshold    = 1.000E-06
     iter. #     1  RMS(g-h-1)= 1.851E-05  nbox=  0
     iter. #    11  RMS(g-h-1)= 2.508E-06  nbox= 10
     iter. #    21  RMS(g-h-1)= 1.185E-06  nbox= 20
     iter. #    31  RMS(g-h-1)= 1.053E-06  nbox= 20
     iter. #    41  RMS(g-h-1)= 1.010E-06  nbox=  8
     iter. #    49  RMS(g-h-1)= 9.992E-07  nbox= 16

     End of Laue-RISM calculation


     convergence has been achieved in    49 iterations


     solvent charge   -1.00076, renormalised to   -1.00000

     Total number of solvent (in expand-cell)
     H2O         1129.559632
     K+            20.077955
     OH-           21.078561

     Total charge of solvent (in expand-cell)
     H2O           -0.000182 e
     K+            20.077955 e
     OH-          -21.078533 e
     Total         -1.000760 e

     Chemical potential of solvation (in expand-cell)
     H2O        GaussFluct  -0.412900E+02 kcal/mol
     K+         GaussFluct  -0.224077E+04 kcal/mol
     OH-        GaussFluct   0.222049E+04 kcal/mol
     Total      GaussFluct  -0.615694E+02 kcal/mol


     total cpu time spent up to now is     3548.2 secs

     total energy              =     -35.27792163 Ry
     estimated scf accuracy    <       0.00000072 Ry

     iteration # 10     ecut=    40.00 Ry     beta= 0.10
     Davidson diagonalization with overlap
     ethr =  8.96E-09,  avg # of iterations =  2.0

     negative rho (up, down):  9.549E-03 0.000E+00

     Laue-RISM Calculation

     convergence threshold    = 1.000E-06
     iter. #     1  RMS(g-h-1)= 1.172E-06  nbox=  0
     iter. #     8  RMS(g-h-1)= 9.995E-07  nbox=  7

     End of Laue-RISM calculation


     convergence has been achieved in     8 iterations


     solvent charge   -1.00077, renormalised to   -1.00000

     Total number of solvent (in expand-cell)
     H2O         1129.559690
     K+            20.077953
     OH-           21.078559

     Total charge of solvent (in expand-cell)
     H2O           -0.000185 e
     K+            20.077953 e
     OH-          -21.078535 e
     Total         -1.000767 e

     Chemical potential of solvation (in expand-cell)
     H2O        GaussFluct  -0.412906E+02 kcal/mol
     K+         GaussFluct  -0.224077E+04 kcal/mol
     OH-        GaussFluct   0.222049E+04 kcal/mol
     Total      GaussFluct  -0.615701E+02 kcal/mol


[...]

     Total charge of solvent (in expand-cell)
     H2O           -0.000326 e
     K+            20.086910 e
     OH-          -21.086915 e
     Total         -1.000331 e

     Chemical potential of solvation (in expand-cell)
     H2O        GaussFluct  -0.402780E+02 kcal/mol
     K+         GaussFluct  -0.224116E+04 kcal/mol
     OH-        GaussFluct   0.222023E+04 kcal/mol
     Total      GaussFluct  -0.612100E+02 kcal/mol


     total cpu time spent up to now is    16364.5 secs

     Self-consistent Calculation

     iteration #  1     ecut=    40.00 Ry     beta= 0.10
     Davidson diagonalization with overlap
     ethr =  1.00E-06,  avg # of iterations =  2.0

     Threshold (ethr) on eigenvalues was too large:
     Diagonalizing with lowered threshold

     Davidson diagonalization with overlap
     ethr =  3.02E-09,  avg # of iterations =  2.0

     negative rho (up, down):  7.089E-03 0.000E+00

     Laue-RISM Calculation

     convergence threshold    = 1.000E-06
     iter. #     1  RMS(g-h-1)= 6.565E-06  nbox=  0
     iter. #    11  RMS(g-h-1)= 3.267E-06  nbox= 10
     iter. #    21  RMS(g-h-1)= 1.629E-06  nbox= 20
     iter. #    31  RMS(g-h-1)= 1.228E-06  nbox= 20
     iter. #    41  RMS(g-h-1)= 1.117E-06  nbox= 20
     iter. #    51  RMS(g-h-1)= 1.033E-06  nbox=  9
     iter. #    57  RMS(g-h-1)= 9.995E-07  nbox= 15

     End of Laue-RISM calculation


     convergence has been achieved in    57 iterations


     solvent charge   -1.00042, renormalised to   -1.00000

     Total number of solvent (in expand-cell)
     H2O         1129.491513
     K+            20.086892
     OH-           21.086898

     Total charge of solvent (in expand-cell)
     H2O           -0.000392 e
     K+            20.086892 e
     OH-          -21.086917 e
     Total         -1.000417 e

     Chemical potential of solvation (in expand-cell)
     H2O        GaussFluct  -0.402773E+02 kcal/mol
     K+         GaussFluct  -0.224116E+04 kcal/mol
     OH-        GaussFluct   0.222023E+04 kcal/mol
     Total      GaussFluct  -0.612097E+02 kcal/mol


     total cpu time spent up to now is    16401.8 secs

     total energy              =     -35.50177457 Ry
     estimated scf accuracy    <       0.00000030 Ry

     iteration #  2     ecut=    40.00 Ry     beta= 0.10
     Davidson diagonalization with overlap
     ethr =  3.80E-09,  avg # of iterations =  1.0

     negative rho (up, down):  7.089E-03 0.000E+00

     Laue-RISM Calculation

     convergence threshold    = 1.000E-06
     iter. #     1  RMS(g-h-1)= 1.118E-05  nbox=  0
     iter. #    11  RMS(g-h-1)= 1.579E-06  nbox= 10
     iter. #    21  RMS(g-h-1)= 1.026E-06  nbox= 20
     iter. #    24  RMS(g-h-1)= 9.965E-07  nbox= 20

     End of Laue-RISM calculation


     convergence has been achieved in    24 iterations


     solvent charge   -1.00039, renormalised to   -1.00000

     Total number of solvent (in expand-cell)
     H2O         1129.491488
     K+            20.086892
     OH-           21.086887

     Total charge of solvent (in expand-cell)
     H2O           -0.000384 e
     K+            20.086892 e
     OH-          -21.086894 e
     Total         -1.000386 e

     Chemical potential of solvation (in expand-cell)
     H2O        GaussFluct  -0.402767E+02 kcal/mol
     K+         GaussFluct  -0.224116E+04 kcal/mol
     OH-        GaussFluct   0.222023E+04 kcal/mol
     Total      GaussFluct  -0.612089E+02 kcal/mol


     total cpu time spent up to now is    16422.8 secs

     total energy              =     -35.50177447 Ry
     estimated scf accuracy    <       0.00000022 Ry

     iteration #  3     ecut=    40.00 Ry     beta= 0.10
     Davidson diagonalization with overlap
     ethr =  2.75E-09,  avg # of iterations =  2.0

     negative rho (up, down):  7.089E-03 0.000E+00

     Laue-RISM Calculation

     convergence threshold    = 1.000E-06
     iter. #     1  RMS(g-h-1)= 1.279E-06  nbox=  0
     iter. #     7  RMS(g-h-1)= 9.945E-07  nbox=  6

     End of Laue-RISM calculation


     convergence has been achieved in     7 iterations


     solvent charge   -1.00040, renormalised to   -1.00000

     Total number of solvent (in expand-cell)
     H2O         1129.491521
     K+            20.086892
     OH-           21.086889

     Total charge of solvent (in expand-cell)
     H2O           -0.000392 e
     K+            20.086892 e
     OH-          -21.086899 e
     Total         -1.000399 e

     Chemical potential of solvation (in expand-cell)
     H2O        GaussFluct  -0.402769E+02 kcal/mol
     K+         GaussFluct  -0.224116E+04 kcal/mol
     OH-        GaussFluct   0.222023E+04 kcal/mol
     Total      GaussFluct  -0.612089E+02 kcal/mol


     total cpu time spent up to now is    16430.6 secs

     total energy              =     -35.50177450 Ry
     estimated scf accuracy    <       0.00000002 Ry

     iteration #  4     ecut=    40.00 Ry     beta= 0.10
     Davidson diagonalization with overlap
     ethr =  1.99E-10,  avg # of iterations =  1.0

     negative rho (up, down):  7.089E-03 0.000E+00

     Laue-RISM Calculation

     convergence threshold    = 1.000E-06
     iter. #     1  RMS(g-h-1)= 3.378E-06  nbox=  0
     iter. #    11  RMS(g-h-1)= 1.044E-06  nbox= 10
     iter. #    16  RMS(g-h-1)= 9.849E-07  nbox= 15

     End of Laue-RISM calculation


     convergence has been achieved in    16 iterations


     solvent charge   -1.00046, renormalised to   -1.00000

     Total number of solvent (in expand-cell)
     H2O         1129.491541
     K+            20.086892
     OH-           21.086944

     Total charge of solvent (in expand-cell)
     H2O           -0.000384 e
     K+            20.086892 e
     OH-          -21.086969 e
     Total         -1.000461 e

     Chemical potential of solvation (in expand-cell)
     H2O        GaussFluct  -0.402787E+02 kcal/mol
     K+         GaussFluct  -0.224116E+04 kcal/mol
     OH-        GaussFluct   0.222023E+04 kcal/mol
     Total      GaussFluct  -0.612098E+02 kcal/mol


     total cpu time spent up to now is    16444.1 secs

     total energy              =     -35.50177463 Ry
     estimated scf accuracy    <       0.00000001 Ry

     iteration #  5     ecut=    40.00 Ry     beta= 0.10
     Davidson diagonalization with overlap
     ethr =  1.55E-10,  avg # of iterations =  2.0

     negative rho (up, down):  7.089E-03 0.000E+00

     Laue-RISM Calculation

     convergence threshold    = 1.000E-06
     iter. #     1  RMS(g-h-1)= 3.024E-06  nbox=  0
     iter. #    11  RMS(g-h-1)= 1.013E-06  nbox= 10
     iter. #    13  RMS(g-h-1)= 9.973E-07  nbox= 12

     End of Laue-RISM calculation


     convergence has been achieved in    13 iterations


     solvent charge   -1.00040, renormalised to   -1.00000

     Total number of solvent (in expand-cell)
     H2O         1129.491458
     K+            20.086905
     OH-           21.086891

     Total charge of solvent (in expand-cell)
     H2O           -0.000404 e
     K+            20.086905 e
     OH-          -21.086897 e
     Total         -1.000396 e

     Chemical potential of solvation (in expand-cell)
     H2O        GaussFluct  -0.402761E+02 kcal/mol
     K+         GaussFluct  -0.224116E+04 kcal/mol
     OH-        GaussFluct   0.222023E+04 kcal/mol
     Total      GaussFluct  -0.612092E+02 kcal/mol


     total cpu time spent up to now is    16455.8 secs

     End of self-consistent calculation

          k = 0.0000 0.0000 0.0000 (115195 PWs)   bands (ev):

   -29.2476 -15.8612 -15.8610 -11.5152  -0.9969  -0.2025   0.1213   0.1257

     the Fermi energy is    -6.5373 ev

!    total energy              =     -35.50177462 Ry
     estimated scf accuracy    <          6.7E-09 Ry
     smearing contrib. (-TS)   =      -0.00000000 Ry
     internal energy E=F+TS    =     -35.50177462 Ry

     The total energy is F=E-TS. E is the sum of the following terms:
     one-electron contribution =     -75.71521355 Ry
     hartree contribution      =      36.75613062 Ry
     xc contribution           =      -8.83879045 Ry
     ewald contribution        =      12.49131544 Ry
     solvation energy (RISM)   =      -0.19521669 Ry

     convergence has been achieved in   5 iterations

     negative rho (up, down):  7.089E-03 0.000E+00

     Forces acting on atoms (cartesian axes, Ry/au):

     atom    1 type  1   force =    -0.00045820   -0.00028843   -0.00003463
     atom    2 type  2   force =     0.00002213    0.00003939    0.00007711
     atom    3 type  2   force =     0.00002011    0.00001623   -0.00004403
     atom    4 type  2   force =     0.00041596    0.00023280    0.00000188

     Total force =     0.000729     Total SCF correction =     0.000094
     SCF correction compared to forces is large: reduce conv_thr to get better values
     Energy error            =      2.4E-06 Ry
     Gradient error          =      4.6E-04 Ry/Bohr

     number of scf cycles    =  16
     number of bfgs steps    =  15

     energy             old  =     -35.5017722098 Ry
     energy             new  =     -35.5017746222 Ry

     CASE: energy            _new < energy            _old

     new trust radius        =       0.0003757641 bohr
     new conv_thr            =       0.0000000100 Ry


ATOMIC_POSITIONS (angstrom)
O                0.3352446970       -0.0309747429       -0.0000119777
H                0.4368678427        0.5573032355        0.8122004051
H                0.4368649087        0.5572928789       -0.8121839224
H               -0.6089774483       -0.3836213715        0.0000045143



     Writing config-only to output data dir ./output/opt.save/ :
     XML data file
     NEW-OLD atomic charge density approx. for the potential

     negative rho (up, down):  7.090E-03 0.000E+00

     Laue-RISM Calculation

     convergence threshold    = 6.310E-06
     iter. #     1  RMS(g-h-1)= 1.250E-04  nbox=  0
     iter. #     8  RMS(g-h-1)= 6.270E-06  nbox=  7

     End of Laue-RISM calculation


     convergence has been achieved in     8 iterations


     solvent charge   -1.00049, renormalised to   -1.00000

     Total number of solvent (in expand-cell)
     H2O         1129.491034
     K+            20.086845
     OH-           21.086933

     Total charge of solvent (in expand-cell)
     H2O           -0.000286 e
     K+            20.086845 e
     OH-          -21.087045 e
     Total         -1.000487 e

     Chemical potential of solvation (in expand-cell)
     H2O        GaussFluct  -0.402762E+02 kcal/mol
     K+         GaussFluct  -0.224116E+04 kcal/mol
     OH-        GaussFluct   0.222023E+04 kcal/mol
     Total      GaussFluct  -0.612085E+02 kcal/mol


     total cpu time spent up to now is    16465.3 secs

     Self-consistent Calculation

     iteration #  1     ecut=    40.00 Ry     beta= 0.10
     Davidson diagonalization with overlap
     ethr =  1.00E-06,  avg # of iterations =  2.0

     Threshold (ethr) on eigenvalues was too large:
     Diagonalizing with lowered threshold

     Davidson diagonalization with overlap
     ethr =  6.65E-10,  avg # of iterations =  1.0

     negative rho (up, down):  7.090E-03 0.000E+00

     Laue-RISM Calculation

     convergence threshold    = 1.000E-06
     iter. #     1  RMS(g-h-1)= 6.246E-06  nbox=  0
     iter. #    11  RMS(g-h-1)= 2.308E-06  nbox= 10
     iter. #    21  RMS(g-h-1)= 1.237E-06  nbox= 20
     iter. #    31  RMS(g-h-1)= 1.030E-06  nbox= 20
     iter. #    41  RMS(g-h-1)= 9.975E-07  nbox=  4

     End of Laue-RISM calculation


     convergence has been achieved in    41 iterations


     solvent charge   -1.00037, renormalised to   -1.00000

     Total number of solvent (in expand-cell)
     H2O         1129.491465
     K+            20.086909
     OH-           21.086904

     Total charge of solvent (in expand-cell)
     H2O           -0.000390 e
     K+            20.086909 e
     OH-          -21.086893 e
     Total         -1.000374 e

     Chemical potential of solvation (in expand-cell)
     H2O        GaussFluct  -0.402757E+02 kcal/mol
     K+         GaussFluct  -0.224116E+04 kcal/mol
     OH-        GaussFluct   0.222023E+04 kcal/mol
     Total      GaussFluct  -0.612089E+02 kcal/mol


     total cpu time spent up to now is    16495.9 secs

     total energy              =     -35.50177457 Ry
     estimated scf accuracy    <       0.00000006 Ry

     iteration #  2     ecut=    40.00 Ry     beta= 0.10
     Davidson diagonalization with overlap
     ethr =  7.85E-10,  avg # of iterations =  1.0

     negative rho (up, down):  7.090E-03 0.000E+00

     Laue-RISM Calculation

     convergence threshold    = 1.000E-06
     iter. #     1  RMS(g-h-1)= 2.671E-06  nbox=  0
     iter. #    11  RMS(g-h-1)= 1.009E-06  nbox= 10
     iter. #    13  RMS(g-h-1)= 9.919E-07  nbox= 12

     End of Laue-RISM calculation


     convergence has been achieved in    13 iterations


     solvent charge   -1.00040, renormalised to   -1.00000

     Total number of solvent (in expand-cell)
     H2O         1129.491484
     K+            20.086901
     OH-           21.086927

     Total charge of solvent (in expand-cell)
     H2O           -0.000374 e
     K+            20.086901 e
     OH-          -21.086924 e
     Total         -1.000397 e

     Chemical potential of solvation (in expand-cell)
     H2O        GaussFluct  -0.402769E+02 kcal/mol
     K+         GaussFluct  -0.224116E+04 kcal/mol
     OH-        GaussFluct   0.222023E+04 kcal/mol
     Total      GaussFluct  -0.612088E+02 kcal/mol


     total cpu time spent up to now is    16507.6 secs

     total energy              =     -35.50177460 Ry
     estimated scf accuracy    <       0.00000004 Ry

     iteration #  3     ecut=    40.00 Ry     beta= 0.10
     Davidson diagonalization with overlap
     ethr =  4.74E-10,  avg # of iterations =  2.0

     negative rho (up, down):  7.090E-03 0.000E+00

     Laue-RISM Calculation

     convergence threshold    = 1.000E-06
     iter. #     1  RMS(g-h-1)= 2.910E-06  nbox=  0
     iter. #    11  RMS(g-h-1)= 1.029E-06  nbox= 10
     iter. #    14  RMS(g-h-1)= 9.950E-07  nbox= 13

     End of Laue-RISM calculation


     convergence has been achieved in    14 iterations


     solvent charge   -1.00038, renormalised to   -1.00000

     Total number of solvent (in expand-cell)
     H2O         1129.491414
     K+            20.086910
     OH-           21.086897

     Total charge of solvent (in expand-cell)
     H2O           -0.000407 e
     K+            20.086910 e
     OH-          -21.086881 e
     Total         -1.000378 e

     Chemical potential of solvation (in expand-cell)
     H2O        GaussFluct  -0.402749E+02 kcal/mol
     K+         GaussFluct  -0.224116E+04 kcal/mol
     OH-        GaussFluct   0.222023E+04 kcal/mol
     Total      GaussFluct  -0.612078E+02 kcal/mol


     total cpu time spent up to now is    16519.8 secs

     End of self-consistent calculation

          k = 0.0000 0.0000 0.0000 (115195 PWs)   bands (ev):

   -29.2493 -15.8637 -15.8617 -11.5163  -0.9968  -0.2025   0.1212   0.1256

     the Fermi energy is    -6.5378 ev

!    total energy              =     -35.50177458 Ry
     estimated scf accuracy    <          4.1E-09 Ry
     smearing contrib. (-TS)   =      -0.00000000 Ry
     internal energy E=F+TS    =     -35.50177458 Ry

     The total energy is F=E-TS. E is the sum of the following terms:
     one-electron contribution =     -75.71745325 Ry
     hartree contribution      =      36.75728829 Ry
     xc contribution           =      -8.83899576 Ry
     ewald contribution        =      12.49259848 Ry
     solvation energy (RISM)   =      -0.19521233 Ry

     convergence has been achieved in   3 iterations

     negative rho (up, down):  7.090E-03 0.000E+00

     Forces acting on atoms (cartesian axes, Ry/au):

     atom    1 type  1   force =    -0.00001544   -0.00005985    0.00005696
     atom    2 type  2   force =     0.00001391   -0.00002263   -0.00002574
     atom    3 type  2   force =     0.00001642    0.00001380   -0.00002531
     atom    4 type  2   force =    -0.00001489    0.00006868   -0.00000305

     Total force =     0.000120     Total SCF correction =     0.000193
     SCF correction compared to forces is large: reduce conv_thr to get better values
     Energy error            =      3.9E-08 Ry
     Gradient error          =      6.9E-05 Ry/Bohr

     bfgs converged in  17 scf cycles and  16 bfgs steps
     (criteria: energy <  1.0E-05 Ry, force <  1.0E-04 Ry/Bohr)

     End of BFGS Geometry Optimization

     Final energy             =     -35.5017745828 Ry

     File ./output/opt.bfgs deleted, as requested
Begin final coordinates

ATOMIC_POSITIONS (angstrom)
O                0.3352446970       -0.0309747429       -0.0000119777
H                0.4368678427        0.5573032355        0.8122004051
H                0.4368649087        0.5572928789       -0.8121839224
H               -0.6089774483       -0.3836213715        0.0000045143
End final coordinates



     Writing all to output data dir ./output/opt.save/ :
     XML data file, charge density, RISM restart, pseudopotentials, RISM molfiles, collected wavefunctions
 
     init_run     :    160.78s CPU    164.06s WALL (       1 calls)
     electrons    :  13621.73s CPU  13940.62s WALL (      17 calls)
     update_pot   :      3.58s CPU      3.98s WALL (      16 calls)
     forces       :      9.96s CPU     10.97s WALL (      17 calls)

     Called by init_run:
     wfcinit      :      0.02s CPU      0.03s WALL (       1 calls)
     potinit      :    159.11s CPU    162.22s WALL (       1 calls)
     hinit0       :      0.16s CPU      0.20s WALL (       1 calls)

     Called by electrons:
     c_bands      :     12.32s CPU     12.62s WALL (     181 calls)
     sum_band     :     21.51s CPU     31.04s WALL (     181 calls)
     v_of_rho     :     32.35s CPU     35.02s WALL (     196 calls)
     newd         :     24.33s CPU     32.77s WALL (     196 calls)
     mix_rho      :      6.10s CPU      6.61s WALL (     181 calls)

     Called by c_bands:
     init_us_2    :      0.19s CPU      0.20s WALL (     363 calls)
     regterg      :     12.01s CPU     12.08s WALL (     181 calls)

     Called by *egterg:
     rdiaghg      :      0.06s CPU      0.06s WALL (     674 calls)
     h_psi        :     11.08s CPU     11.14s WALL (     693 calls)
     s_psi        :      0.08s CPU      0.08s WALL (     693 calls)
     g_psi        :      0.02s CPU      0.02s WALL (     511 calls)

     Called by h_psi:
     h_psi:calbec :      0.34s CPU      0.35s WALL (     693 calls)
     vloc_psi     :     10.54s CPU     10.60s WALL (     693 calls)
     add_vuspsi   :      0.15s CPU      0.15s WALL (     693 calls)

     General routines
     calbec       :      0.48s CPU      0.50s WALL (     942 calls)
     fft          :     37.30s CPU     43.65s WALL (    2898 calls)
     ffts         :      2.01s CPU      2.35s WALL (     377 calls)
     fftw         :      9.63s CPU      9.67s WALL (    4838 calls)
     interpolate  :      3.60s CPU      4.02s WALL (     196 calls)
 
     Parallel routines
     fft_scatt_xy :    135.81s CPU    138.34s WALL (  326750 calls)
     fft_scatt_yz :   1530.71s CPU   1814.82s WALL (  326750 calls)

     RISM routines
     1DRISM_pre   :      0.00s CPU      0.00s WALL (       1 calls)
     1DRISM_run   :     90.65s CPU    112.33s WALL (       1 calls)
     3DRISM_pre   :      6.19s CPU      6.32s WALL (       1 calls)
     3DRISM_run   :  15902.14s CPU  16244.39s WALL (     196 calls)
     3DRISM_ions  :      0.85s CPU      0.85s WALL (      16 calls)
     3DRISM_for   :      1.68s CPU      1.69s WALL (      17 calls)
     3DRISM_vsol  :      2.50s CPU      2.82s WALL (     196 calls)
 
     PWSCF        :      4h28m CPU      4h35m WALL

 
   This run was terminated on:  16:59: 6  29May2024            

=------------------------------------------------------------------------------=
   JOB DONE.
=------------------------------------------------------------------------------=
