
     Program PWSCF v.7.3.1 starts on  9Jun2024 at 16:20:26 

     This program is part of the open-source Quantum ESPRESSO suite
     for quantum simulation of materials; please cite
         "P. Giannozzi et al., J. Phys.:Condens. Matter 21 395502 (2009);
         "P. Giannozzi et al., J. Phys.:Condens. Matter 29 465901 (2017);
         "P. Giannozzi et al., J. Chem. Phys. 152 154105 (2020);
          URL http://www.quantum-espresso.org", 
     in publications or presentations arising from this work. More details at
     http://www.quantum-espresso.org/quote

     Parallel version (MPI), running on    32 processors

     MPI processes distributed on     1 nodes
     179211 MiB available memory on the printing compute node when the environment starts
 
     Reading input from scf.in
Warning: card &CELL ignored
Warning: card / ignored

     Current dimensions of program PWSCF are:
     Max number of different atomic species (ntypx) = 10
     Max number of k-points (npk) =  40000
     Max angular momentum in pseudopotentials (lmaxx) =  4
 
     Reading input from environ.in:
     * using full solvent mode
     * setting boundary derivatives method to SCCS default
     * setting electrolyte-boundary derivatives method to SCCS default
     
 
     R & G space division:  proc/nbgrp/npool/nimage =      32
     Subspace diagonalization in iterative solution of the eigenvalue problem:
     a serial algorithm will be used

 
     Parallelization info
     --------------------
     sticks:   dense  smooth     PW     G-vecs:    dense   smooth      PW
     Min          64      32      8                13804     4878     692
     Max          65      33      9                13839     4905     719
     Sum        2053    1027    283               442007   156319   22723
 
     Using Slab Decomposition
 


     bravais-lattice index     =            0
     lattice parameter (alat)  =       9.6476  a.u.
     unit-cell volume          =    4569.7547 (a.u.)^3
     number of atoms/cell      =           14
     number of atomic types    =            3
     number of electrons       =       237.90
     number of Kohn-Sham states=          143
     kinetic-energy cutoff     =      40.0000  Ry
     charge density cutoff     =     320.0000  Ry
     scf convergence threshold =      1.0E-06
     mixing beta               =       0.0500
     number of iterations used =            8  plain     mixing
     Exchange-correlation= SLA  PW   PBE  PBE
                           (   1   4   3   4   0   0   0)

     ================================================================================
 
                                  Environ Setup Summary

     ================================================================================
 
     Please cite

          O. Andreussi, I. Dabo and N. Marzari, J. Chem. Phys. 136, 064102 (2012)
          F. Nattino, M. Truscott, N. Marzari, and O. Andreussi, J. Chem. Phys. 150, 041722 (2019)

     in publications or presentations arising from this work.

     ================================================================================
 
     Parameters
     ==========

     compensation onset threshold      =               0.1000E+03
     static permittivity               =                    80.00

     Solvent Boundary
     ================

     solvent mode                      =                     full
     derivatives method                =                    chain
     electrolyte derivatives method    =                    chain
     numerical core for derivatives    =                      fft
     switching function adopted        =                     SCCS
     density limit for vacuum region   =               0.5000E-02
     density limit for bulk solvent    =               0.1000E-03

     Electrostatic Setup
     ===================

     electrostatic problem to solve    =                    modpb
     numerical solver adopted          =                   newton
     type of auxiliary density adopted =                     none
     numerical core for poisson        =                      fft
     adopting a nested solver scheme
     inner solver                      =                       cg
     inner core                        =                      fft
     type of pbc corrections           =                parabolic
     numerical core for corrections    =                      1da

     ================================================================================
 

     celldm(1)=   9.647639  celldm(2)=   0.000000  celldm(3)=   0.000000
     celldm(4)=   0.000000  celldm(5)=   0.000000  celldm(6)=   0.000000

     crystal axes: (cart. coord. in units of alat)
               a(1) = (   1.000000   0.000000   0.000000 )  
               a(2) = (   0.500000   0.866025   0.000000 )  
               a(3) = (   0.000000   0.000000   5.876234 )  

     reciprocal axes: (cart. coord. in units 2 pi/alat)
               b(1) = (  1.000000 -0.577350  0.000000 )  
               b(2) = (  0.000000  1.154701  0.000000 )  
               b(3) = (  0.000000  0.000000  0.170177 )  


     PseudoPot. # 1 for Cu read from file:
     ../../pseudo/cu_pbe_v1.2.uspp.F.UPF
     MD5 check sum: 6e991ff952a84172a2a52a1c1e996048
     Pseudo is Ultrasoft + core correction, Zval = 19.0
     Generated by new atomic code, or converted to UPF format
     Using radial grid of  867 points,  6 beta functions with: 
                l(1) =   0
                l(2) =   0
                l(3) =   1
                l(4) =   1
                l(5) =   2
                l(6) =   2
     Q(r) pseudized with  8 coefficients,  rinner =    1.150   1.150   1.150
                                                       1.150   1.150

     PseudoPot. # 2 for O  read from file:
     ../../pseudo/o_pbe_v1.2.uspp.F.UPF
     MD5 check sum: 734c27235a0248c51dbae37a1fbe46ec
     Pseudo is Ultrasoft + core correction, Zval =  6.0
     Generated by new atomic code, or converted to UPF format
     Using radial grid of  737 points,  5 beta functions with: 
                l(1) =   0
                l(2) =   0
                l(3) =   1
                l(4) =   1
                l(5) =   2
     Q(r) pseudized with  8 coefficients,  rinner =    0.900   0.900   0.900
                                                       0.900   0.900

     PseudoPot. # 3 for C  read from file:
     ../../pseudo/c_pbe_v1.2.uspp.F.UPF
     MD5 check sum: d1aef80898a10debaa0f26306b886e00
     Pseudo is Ultrasoft + core correction, Zval =  4.0
     Generated by new atomic code, or converted to UPF format
     Using radial grid of  721 points,  4 beta functions with: 
                l(1) =   0
                l(2) =   0
                l(3) =   1
                l(4) =   1
     Q(r) pseudized with  8 coefficients,  rinner =    1.100   1.100   1.100


     atomic species   valence    mass     pseudopotential
     Cu               19.00    63.54600     Cu( 1.00)
     O                 6.00    15.99900     O ( 1.00)
     C                 4.00    12.01100     C ( 1.00)

     No symmetry found



   Cartesian axes

     site n.     atom                  positions (alat units)
         1        Cu     tau(   1) = (   0.1250000   0.0721688   2.5267805  )
         2        Cu     tau(   2) = (   0.6303651   0.3620439   2.9279060  )
         3        Cu     tau(   3) = (   0.3908697   0.2225165   3.3257332  )
         4        Cu     tau(   4) = (   0.3750000   0.5051815   2.5267805  )
         5        Cu     tau(   5) = (   0.8810586   0.7929929   2.9306663  )
         6        Cu     tau(   6) = (   0.6406493   0.6600251   3.3478296  )
         7        Cu     tau(   7) = (   0.6250000   0.0721688   2.5267805  )
         8        Cu     tau(   8) = (   1.1289367   0.3637558   2.9309409  )
         9        Cu     tau(   9) = (   0.8944855   0.2208325   3.3490690  )
        10        Cu     tau(  10) = (   0.8750000   0.5051815   2.5267805  )
        11        Cu     tau(  11) = (   1.3806944   0.7954917   2.9432130  )
        12        Cu     tau(  12) = (   1.1455917   0.6584810   3.3504614  )
        13        O      tau(  13) = (   0.8819856   0.5082280   3.8458037  )
        14        C      tau(  14) = (   0.8813532   0.5068991   3.6145444  )

     number of k points=     2  Methfessel-Paxton smearing, width (Ry)=  0.0100
                       cart. coord. in units 2pi/alat
        k(    1) = (   0.2500000   0.1443376   0.0000000), wk =   1.0000000
        k(    2) = (   0.2500000  -0.4330127   0.0000000), wk =   1.0000000

     Dense  grid:   442007 G-vectors     FFT dimensions: (  60,  60, 324)

     Smooth grid:   156319 G-vectors     FFT dimensions: (  40,  40, 240)

     Estimated max dynamical RAM per process >      66.24 MB

     Estimated total dynamical RAM >       2.07 GB

Environ Warning (1005): wrong integral of erfc function


     Initial potential from superposition of free atoms

     starting charge     225.9999, renormalised to     237.9000

     negative rho (up, down):  4.013E-03 0.000E+00
     Starting wfcs are  164 randomized atomic wfcs

     total cpu time spent up to now is        0.8 secs

     Self-consistent Calculation

     iteration #  1     ecut=    40.00 Ry     beta= 0.05
     Davidson diagonalization with overlap
     ethr =  1.00E-02,  avg # of iterations = 10.5

     negative rho (up, down):  1.988E-03 0.000E+00

     total cpu time spent up to now is        2.3 secs

     total energy              =   -4866.12512058 Ry
     estimated scf accuracy    <     397.60110538 Ry
     electrostatic embedding   =       0.00818095 Ry
     electrolyte free energy   =       0.00172904 Ry
     correction to one-el term =       0.00000000 Ry

     iteration #  2     ecut=    40.00 Ry     beta= 0.05
     Davidson diagonalization with overlap
     ethr =  1.00E-02,  avg # of iterations =  6.0

     negative rho (up, down):  1.245E-03 0.000E+00

     total cpu time spent up to now is        3.4 secs

     total energy              =   -4875.78491698 Ry
     estimated scf accuracy    <    1027.40869839 Ry
     electrostatic embedding   =       0.00818095 Ry
     electrolyte free energy   =       0.00172904 Ry
     correction to one-el term =       0.00000000 Ry

     iteration #  3     ecut=    40.00 Ry     beta= 0.05
     Davidson diagonalization with overlap
     ethr =  1.00E-02,  avg # of iterations =  3.0

     negative rho (up, down):  1.138E-03 0.000E+00

     add environment contribution to local potential
     Polarization accuracy = 6.4E-19, # of iterations =  34
     Polarization accuracy = 7.8E-20, # of iterations =   1
     Electrolyte accuracy = 1.9E-19, # of iterations =   2

     total cpu time spent up to now is        4.3 secs

     total energy              =   -4890.33762730 Ry
     estimated scf accuracy    <      29.64456206 Ry
     electrostatic embedding   =       0.00818095 Ry
     electrolyte free energy   =       0.00172904 Ry
     correction to one-el term =       0.00000000 Ry

     iteration #  4     ecut=    40.00 Ry     beta= 0.05
     Davidson diagonalization with overlap
     ethr =  1.00E-02,  avg # of iterations =  1.0

     negative rho (up, down):  1.064E-03 0.000E+00

     add environment contribution to local potential
     Polarization accuracy = 3.2E-18, # of iterations =  34
     Polarization accuracy = 6.7E-19, # of iterations =   1
     Electrolyte accuracy = 1.4E-18, # of iterations =   2

     total cpu time spent up to now is        5.0 secs

     total energy              =   -4888.18904118 Ry
     estimated scf accuracy    <      14.08998627 Ry
     electrostatic embedding   =      -0.00166145 Ry
     electrolyte free energy   =       0.00172904 Ry
     correction to one-el term =      61.73977863 Ry

     iteration #  5     ecut=    40.00 Ry     beta= 0.05
     Davidson diagonalization with overlap
     ethr =  5.92E-03,  avg # of iterations =  2.0
     Minimization algorithm failed to find Fermi energy: reverting to bisection
     Possible cause: smearing is larger than the electronic band-gap.

     negative rho (up, down):  1.048E-03 0.000E+00

     add environment contribution to local potential
     Polarization accuracy = 3.5E-18, # of iterations =  36
     Polarization accuracy = 5.5E-20, # of iterations =   1
     Electrolyte accuracy = 3.4E-19, # of iterations =   2

     total cpu time spent up to now is        5.9 secs

     total energy              =   -4888.43504339 Ry
     estimated scf accuracy    <       2.94502034 Ry
     electrostatic embedding   =       0.00657656 Ry
     electrolyte free energy   =       0.00172904 Ry
     correction to one-el term =      60.21725240 Ry

     iteration #  6     ecut=    40.00 Ry     beta= 0.05
     Davidson diagonalization with overlap
     ethr =  1.24E-03,  avg # of iterations = 10.0
     Minimization algorithm failed to find Fermi energy: reverting to bisection
     Possible cause: smearing is larger than the electronic band-gap.

     negative rho (up, down):  1.012E-03 0.000E+00

     add environment contribution to local potential
     Polarization accuracy = 2.6E-18, # of iterations =  36
     Polarization accuracy = 1.3E-19, # of iterations =   1
     Electrolyte accuracy = 4.5E-19, # of iterations =   2

     total cpu time spent up to now is        7.3 secs

     total energy              =   -4888.88301859 Ry
     estimated scf accuracy    <       0.75303669 Ry
     electrostatic embedding   =       0.01181647 Ry
     electrolyte free energy   =       0.00172904 Ry
     correction to one-el term =      58.16087320 Ry

     iteration #  7     ecut=    40.00 Ry     beta= 0.05
     Davidson diagonalization with overlap
     ethr =  3.17E-04,  avg # of iterations =  2.0
     Minimization algorithm failed to find Fermi energy: reverting to bisection
     Possible cause: smearing is larger than the electronic band-gap.

     negative rho (up, down):  1.256E-03 0.000E+00

     add environment contribution to local potential
     Polarization accuracy = 8.8E-19, # of iterations =  37
     Polarization accuracy = 2.7E-20, # of iterations =   1
     Electrolyte accuracy = 7.6E-20, # of iterations =   2

     total cpu time spent up to now is        8.2 secs

     total energy              =   -4888.85174809 Ry
     estimated scf accuracy    <       0.25363637 Ry
     electrostatic embedding   =       0.01297348 Ry
     electrolyte free energy   =       0.00172904 Ry
     correction to one-el term =      57.31741118 Ry

     iteration #  8     ecut=    40.00 Ry     beta= 0.05
     Davidson diagonalization with overlap
     ethr =  1.07E-04,  avg # of iterations =  8.0

     negative rho (up, down):  1.232E-03 0.000E+00

     add environment contribution to local potential
     Polarization accuracy = 2.4E-18, # of iterations =  37
     Polarization accuracy = 4.2E-20, # of iterations =   1
     Electrolyte accuracy = 1.4E-19, # of iterations =   2

     total cpu time spent up to now is        9.4 secs

     total energy              =   -4888.90472537 Ry
     estimated scf accuracy    <       0.46615519 Ry
     electrostatic embedding   =       0.01462385 Ry
     electrolyte free energy   =       0.00172904 Ry
     correction to one-el term =      56.86664083 Ry

     iteration #  9     ecut=    40.00 Ry     beta= 0.05
     Davidson diagonalization with overlap
     ethr =  1.07E-04,  avg # of iterations =  1.5

     negative rho (up, down):  1.354E-03 0.000E+00

     add environment contribution to local potential
     Polarization accuracy = 1.0E-18, # of iterations =  38
     Polarization accuracy = 2.8E-20, # of iterations =   1
     Electrolyte accuracy = 6.6E-20, # of iterations =   2

     total cpu time spent up to now is       10.3 secs

     total energy              =   -4888.85430518 Ry
     estimated scf accuracy    <       0.46281989 Ry
     electrostatic embedding   =       0.01550642 Ry
     electrolyte free energy   =       0.00172904 Ry
     correction to one-el term =      56.99135982 Ry

     iteration # 10     ecut=    40.00 Ry     beta= 0.05
     Davidson diagonalization with overlap
     ethr =  1.07E-04,  avg # of iterations =  1.5

     negative rho (up, down):  2.633E-03 0.000E+00

     add environment contribution to local potential
     Polarization accuracy = 4.9E-18, # of iterations =  40
     Polarization accuracy = 1.1E-19, # of iterations =   1
     Electrolyte accuracy = 3.3E-19, # of iterations =   2

     total cpu time spent up to now is       11.0 secs

     total energy              =   -4888.85586830 Ry
     estimated scf accuracy    <       0.08139208 Ry
     electrostatic embedding   =       0.01711613 Ry
     electrolyte free energy   =       0.00172904 Ry
     correction to one-el term =      57.72176529 Ry

     iteration # 11     ecut=    40.00 Ry     beta= 0.05
     Davidson diagonalization with overlap
     ethr =  3.42E-05,  avg # of iterations = 16.5

     negative rho (up, down):  2.812E-03 0.000E+00

     add environment contribution to local potential
     Polarization accuracy = 1.2E-18, # of iterations =  41
     Polarization accuracy = 6.7E-20, # of iterations =   1
     Electrolyte accuracy = 2.8E-19, # of iterations =   2

     total cpu time spent up to now is       12.6 secs

     total energy              =   -4888.86050308 Ry
     estimated scf accuracy    <       0.05099654 Ry
     electrostatic embedding   =       0.02031553 Ry
     electrolyte free energy   =       0.00172904 Ry
     correction to one-el term =      59.45562240 Ry

     iteration # 12     ecut=    40.00 Ry     beta= 0.05
     Davidson diagonalization with overlap
     ethr =  2.14E-05,  avg # of iterations =  1.5
     Minimization algorithm failed to find Fermi energy: reverting to bisection
     Possible cause: smearing is larger than the electronic band-gap.

     negative rho (up, down):  2.563E-03 0.000E+00

     add environment contribution to local potential
     Polarization accuracy = 1.1E-18, # of iterations =  41
     Polarization accuracy = 1.7E-19, # of iterations =   1
     Electrolyte accuracy = 4.2E-19, # of iterations =   2

     total cpu time spent up to now is       13.4 secs

     total energy              =   -4888.85431107 Ry
     estimated scf accuracy    <       0.02910551 Ry
     electrostatic embedding   =       0.02123792 Ry
     electrolyte free energy   =       0.00172904 Ry
     correction to one-el term =      60.20673269 Ry

     iteration # 13     ecut=    40.00 Ry     beta= 0.05
     Davidson diagonalization with overlap
     ethr =  1.22E-05,  avg # of iterations =  2.0

     negative rho (up, down):  3.057E-03 0.000E+00

     add environment contribution to local potential
     Polarization accuracy = 1.3E-18, # of iterations =  41
     Polarization accuracy = 1.9E-19, # of iterations =   1
     Electrolyte accuracy = 4.5E-19, # of iterations =   2

     total cpu time spent up to now is       14.3 secs

     total energy              =   -4888.85542302 Ry
     estimated scf accuracy    <       0.02690210 Ry
     electrostatic embedding   =       0.02159225 Ry
     electrolyte free energy   =       0.00172904 Ry
     correction to one-el term =      60.50243821 Ry

     iteration # 14     ecut=    40.00 Ry     beta= 0.05
     Davidson diagonalization with overlap
     ethr =  1.13E-05,  avg # of iterations =  3.0

     negative rho (up, down):  3.007E-03 0.000E+00

     add environment contribution to local potential
     Polarization accuracy = 2.5E-18, # of iterations =  41
     Polarization accuracy = 4.9E-19, # of iterations =   1
     Electrolyte accuracy = 6.0E-19, # of iterations =   2

     total cpu time spent up to now is       15.1 secs

     total energy              =   -4888.85711803 Ry
     estimated scf accuracy    <       0.02213446 Ry
     electrostatic embedding   =       0.02285573 Ry
     electrolyte free energy   =       0.00172904 Ry
     correction to one-el term =      61.70999723 Ry

     iteration # 15     ecut=    40.00 Ry     beta= 0.05
     Davidson diagonalization with overlap
     ethr =  9.30E-06,  avg # of iterations =  2.0

     negative rho (up, down):  3.646E-03 0.000E+00

     add environment contribution to local potential
     Polarization accuracy = 3.3E-18, # of iterations =  42
     Polarization accuracy = 3.2E-19, # of iterations =   1
     Electrolyte accuracy = 7.4E-19, # of iterations =   2

     total cpu time spent up to now is       16.0 secs

     total energy              =   -4888.85894311 Ry
     estimated scf accuracy    <       0.00754869 Ry
     electrostatic embedding   =       0.02291912 Ry
     electrolyte free energy   =       0.00172904 Ry
     correction to one-el term =      61.84283902 Ry

     iteration # 16     ecut=    40.00 Ry     beta= 0.05
     Davidson diagonalization with overlap
     ethr =  3.17E-06,  avg # of iterations = 12.5

     negative rho (up, down):  3.176E-03 0.000E+00

     add environment contribution to local potential
     Polarization accuracy = 1.2E-18, # of iterations =  42
     Polarization accuracy = 1.6E-19, # of iterations =   1
     Electrolyte accuracy = 1.3E-19, # of iterations =   2

     total cpu time spent up to now is       17.4 secs

     total energy              =   -4888.86002970 Ry
     estimated scf accuracy    <       0.03244229 Ry
     electrostatic embedding   =       0.02368892 Ry
     electrolyte free energy   =       0.00172904 Ry
     correction to one-el term =      62.69482784 Ry

     iteration # 17     ecut=    40.00 Ry     beta= 0.05
     Davidson diagonalization with overlap
     ethr =  3.17E-06,  avg # of iterations =  2.0
     Minimization algorithm failed to find Fermi energy: reverting to bisection
     Possible cause: smearing is larger than the electronic band-gap.

     negative rho (up, down):  3.207E-03 0.000E+00

     add environment contribution to local potential
     Polarization accuracy = 1.1E-18, # of iterations =  42
     Polarization accuracy = 1.6E-19, # of iterations =   1
     Electrolyte accuracy = 1.4E-19, # of iterations =   2

     total cpu time spent up to now is       18.3 secs

     total energy              =   -4888.85823912 Ry
     estimated scf accuracy    <       0.01660793 Ry
     electrostatic embedding   =       0.02359381 Ry
     electrolyte free energy   =       0.00172904 Ry
     correction to one-el term =      62.62487021 Ry

     iteration # 18     ecut=    40.00 Ry     beta= 0.05
     Davidson diagonalization with overlap
     ethr =  3.17E-06,  avg # of iterations = 16.0
     Minimization algorithm failed to find Fermi energy: reverting to bisection
     Possible cause: smearing is larger than the electronic band-gap.

     negative rho (up, down):  3.511E-03 0.000E+00

     add environment contribution to local potential
     Polarization accuracy = 1.1E-18, # of iterations =  44
     Polarization accuracy = 9.5E-20, # of iterations =   1
     Electrolyte accuracy = 1.9E-19, # of iterations =   2

     total cpu time spent up to now is       19.8 secs

     total energy              =   -4888.85961813 Ry
     estimated scf accuracy    <       0.00036779 Ry
     electrostatic embedding   =       0.02384245 Ry
     electrolyte free energy   =       0.00172904 Ry
     correction to one-el term =      62.95721509 Ry

     iteration # 19     ecut=    40.00 Ry     beta= 0.05
     Davidson diagonalization with overlap
     ethr =  1.55E-07,  avg # of iterations =  3.0
     Minimization algorithm failed to find Fermi energy: reverting to bisection
     Possible cause: smearing is larger than the electronic band-gap.

     negative rho (up, down):  3.539E-03 0.000E+00

     add environment contribution to local potential
     Polarization accuracy = 2.2E-18, # of iterations =  42
     Polarization accuracy = 3.1E-19, # of iterations =   1
     Electrolyte accuracy = 2.8E-19, # of iterations =   2

     total cpu time spent up to now is       20.7 secs

     total energy              =   -4888.85961765 Ry
     estimated scf accuracy    <       0.00108287 Ry
     electrostatic embedding   =       0.02403563 Ry
     electrolyte free energy   =       0.00172904 Ry
     correction to one-el term =      63.24260254 Ry

     iteration # 20     ecut=    40.00 Ry     beta= 0.05
     Davidson diagonalization with overlap
     ethr =  1.55E-07,  avg # of iterations =  9.0
     Minimization algorithm failed to find Fermi energy: reverting to bisection
     Possible cause: smearing is larger than the electronic band-gap.

     negative rho (up, down):  3.421E-03 0.000E+00

     add environment contribution to local potential
     Polarization accuracy = 2.1E-18, # of iterations =  42
     Polarization accuracy = 3.0E-19, # of iterations =   1
     Electrolyte accuracy = 2.6E-19, # of iterations =   2

     total cpu time spent up to now is       21.8 secs

     total energy              =   -4888.85979453 Ry
     estimated scf accuracy    <       0.00004346 Ry
     electrostatic embedding   =       0.02412016 Ry
     electrolyte free energy   =       0.00172904 Ry
     correction to one-el term =      63.43144504 Ry

     iteration # 21     ecut=    40.00 Ry     beta= 0.05
     Davidson diagonalization with overlap
     ethr =  1.83E-08,  avg # of iterations =  2.5

     negative rho (up, down):  3.385E-03 0.000E+00

     add environment contribution to local potential
     Polarization accuracy = 2.3E-18, # of iterations =  42
     Polarization accuracy = 3.3E-19, # of iterations =   1
     Electrolyte accuracy = 3.0E-19, # of iterations =   2

     total cpu time spent up to now is       22.8 secs

     total energy              =   -4888.85982178 Ry
     estimated scf accuracy    <       0.00008142 Ry
     electrostatic embedding   =       0.02414571 Ry
     electrolyte free energy   =       0.00172904 Ry
     correction to one-el term =      63.49594384 Ry

     iteration # 22     ecut=    40.00 Ry     beta= 0.05
     Davidson diagonalization with overlap
     ethr =  1.83E-08,  avg # of iterations =  2.0
     Minimization algorithm failed to find Fermi energy: reverting to bisection
     Possible cause: smearing is larger than the electronic band-gap.

     negative rho (up, down):  3.255E-03 0.000E+00

     add environment contribution to local potential
     Polarization accuracy = 2.3E-18, # of iterations =  42
     Polarization accuracy = 3.1E-19, # of iterations =   1
     Electrolyte accuracy = 3.1E-19, # of iterations =   2

     total cpu time spent up to now is       23.9 secs

     total energy              =   -4888.85984786 Ry
     estimated scf accuracy    <       0.00010485 Ry
     electrostatic embedding   =       0.02419520 Ry
     electrolyte free energy   =       0.00172904 Ry
     correction to one-el term =      63.56544689 Ry

     iteration # 23     ecut=    40.00 Ry     beta= 0.05
     Davidson diagonalization with overlap
     ethr =  1.83E-08,  avg # of iterations =  2.0
     Minimization algorithm failed to find Fermi energy: reverting to bisection
     Possible cause: smearing is larger than the electronic band-gap.

     negative rho (up, down):  3.268E-03 0.000E+00

     add environment contribution to local potential
     Polarization accuracy = 2.4E-18, # of iterations =  42
     Polarization accuracy = 2.7E-19, # of iterations =   1
     Electrolyte accuracy = 4.4E-19, # of iterations =   2

     total cpu time spent up to now is       24.7 secs

     total energy              =   -4888.85988229 Ry
     estimated scf accuracy    <       0.00001391 Ry
     electrostatic embedding   =       0.02421710 Ry
     electrolyte free energy   =       0.00172904 Ry
     correction to one-el term =      63.61193787 Ry

     iteration # 24     ecut=    40.00 Ry     beta= 0.05
     Davidson diagonalization with overlap
     ethr =  5.85E-09,  avg # of iterations =  9.0

     negative rho (up, down):  3.162E-03 0.000E+00

     add environment contribution to local potential
     Polarization accuracy = 2.2E-18, # of iterations =  42
     Polarization accuracy = 1.2E-19, # of iterations =   1
     Electrolyte accuracy = 1.1E-19, # of iterations =   2

     total cpu time spent up to now is       26.0 secs

     total energy              =   -4888.85990315 Ry
     estimated scf accuracy    <       0.00005342 Ry
     electrostatic embedding   =       0.02427584 Ry
     electrolyte free energy   =       0.00172904 Ry
     correction to one-el term =      63.72127903 Ry

     iteration # 25     ecut=    40.00 Ry     beta= 0.05
     Davidson diagonalization with overlap
     ethr =  5.85E-09,  avg # of iterations =  1.0

     negative rho (up, down):  3.012E-03 0.000E+00

     add environment contribution to local potential
     Polarization accuracy = 1.8E-18, # of iterations =  42
     Polarization accuracy = 2.6E-19, # of iterations =   1
     Electrolyte accuracy = 2.5E-19, # of iterations =   2

     total cpu time spent up to now is       26.8 secs

     total energy              =   -4888.85992906 Ry
     estimated scf accuracy    <       0.00007367 Ry
     electrostatic embedding   =       0.02428742 Ry
     electrolyte free energy   =       0.00172904 Ry
     correction to one-el term =      63.74450381 Ry

     iteration # 26     ecut=    40.00 Ry     beta= 0.05
     Davidson diagonalization with overlap
     ethr =  5.85E-09,  avg # of iterations =  1.5

     negative rho (up, down):  2.912E-03 0.000E+00

     add environment contribution to local potential
     Polarization accuracy = 1.8E-18, # of iterations =  42
     Polarization accuracy = 2.3E-19, # of iterations =   1
     Electrolyte accuracy = 3.6E-19, # of iterations =   2

     total cpu time spent up to now is       27.6 secs

     total energy              =   -4888.85996766 Ry
     estimated scf accuracy    <       0.00023193 Ry
     electrostatic embedding   =       0.02428226 Ry
     electrolyte free energy   =       0.00172904 Ry
     correction to one-el term =      63.74357350 Ry

     iteration # 27     ecut=    40.00 Ry     beta= 0.05
     Davidson diagonalization with overlap
     ethr =  5.85E-09,  avg # of iterations =  3.0

     negative rho (up, down):  2.761E-03 0.000E+00

     add environment contribution to local potential
     Polarization accuracy = 2.3E-18, # of iterations =  42
     Polarization accuracy = 2.2E-19, # of iterations =   1
     Electrolyte accuracy = 1.4E-18, # of iterations =   2

     total cpu time spent up to now is       28.5 secs

     total energy              =   -4888.86000664 Ry
     estimated scf accuracy    <       0.00092171 Ry
     electrostatic embedding   =       0.02429002 Ry
     electrolyte free energy   =       0.00172904 Ry
     correction to one-el term =      63.77173091 Ry

     iteration # 28     ecut=    40.00 Ry     beta= 0.05
     Davidson diagonalization with overlap
     ethr =  5.85E-09,  avg # of iterations =  3.0

     negative rho (up, down):  2.658E-03 0.000E+00

     add environment contribution to local potential
     Polarization accuracy = 1.2E-18, # of iterations =  42
     Polarization accuracy = 1.6E-19, # of iterations =   1
     Electrolyte accuracy = 1.7E-19, # of iterations =   2

     total cpu time spent up to now is       29.3 secs

     total energy              =   -4888.86004488 Ry
     estimated scf accuracy    <       0.00165314 Ry
     electrostatic embedding   =       0.02428093 Ry
     electrolyte free energy   =       0.00172904 Ry
     correction to one-el term =      63.76795837 Ry

     iteration # 29     ecut=    40.00 Ry     beta= 0.05
     Davidson diagonalization with overlap
     ethr =  5.85E-09,  avg # of iterations =  5.5

     negative rho (up, down):  2.531E-03 0.000E+00

     add environment contribution to local potential
     Polarization accuracy = 9.8E-19, # of iterations =  42
     Polarization accuracy = 1.4E-19, # of iterations =   1
     Electrolyte accuracy = 1.4E-19, # of iterations =   2

     total cpu time spent up to now is       30.3 secs

     total energy              =   -4888.86010325 Ry
     estimated scf accuracy    <       0.00223003 Ry
     electrostatic embedding   =       0.02427774 Ry
     electrolyte free energy   =       0.00172904 Ry
     correction to one-el term =      63.77040981 Ry

     iteration # 30     ecut=    40.00 Ry     beta= 0.05
     Davidson diagonalization with overlap
     ethr =  5.85E-09,  avg # of iterations =  7.0

     negative rho (up, down):  2.457E-03 0.000E+00

     add environment contribution to local potential
     Polarization accuracy = 8.7E-19, # of iterations =  42
     Polarization accuracy = 1.2E-19, # of iterations =   1
     Electrolyte accuracy = 1.3E-19, # of iterations =   2

     total cpu time spent up to now is       31.3 secs

     total energy              =   -4888.86014004 Ry
     estimated scf accuracy    <       0.00334348 Ry
     electrostatic embedding   =       0.02426998 Ry
     electrolyte free energy   =       0.00172904 Ry
     correction to one-el term =      63.76702814 Ry

     iteration # 31     ecut=    40.00 Ry     beta= 0.05
     Davidson diagonalization with overlap
     ethr =  5.85E-09,  avg # of iterations =  1.5

     negative rho (up, down):  2.350E-03 0.000E+00

     add environment contribution to local potential
     Polarization accuracy = 4.3E-18, # of iterations =  41
     Polarization accuracy = 6.3E-19, # of iterations =   1
     Electrolyte accuracy = 2.4E-18, # of iterations =   2

     total cpu time spent up to now is       32.1 secs

     total energy              =   -4888.86019968 Ry
     estimated scf accuracy    <       0.00388492 Ry
     electrostatic embedding   =       0.02427056 Ry
     electrolyte free energy   =       0.00172904 Ry
     correction to one-el term =      63.78009773 Ry

     iteration # 32     ecut=    40.00 Ry     beta= 0.05
     Davidson diagonalization with overlap
     ethr =  5.85E-09,  avg # of iterations =  2.0

     negative rho (up, down):  2.254E-03 0.000E+00

     add environment contribution to local potential
     Polarization accuracy = 3.7E-18, # of iterations =  41
     Polarization accuracy = 7.0E-19, # of iterations =   1
     Electrolyte accuracy = 2.0E-18, # of iterations =   2

     total cpu time spent up to now is       33.0 secs

     total energy              =   -4888.86024187 Ry
     estimated scf accuracy    <       0.00507902 Ry
     electrostatic embedding   =       0.02426537 Ry
     electrolyte free energy   =       0.00172904 Ry
     correction to one-el term =      63.77661582 Ry

     iteration # 33     ecut=    40.00 Ry     beta= 0.05
     Davidson diagonalization with overlap
     ethr =  5.85E-09,  avg # of iterations =  1.5

     negative rho (up, down):  2.187E-03 0.000E+00

     add environment contribution to local potential
     Polarization accuracy = 3.3E-18, # of iterations =  41
     Polarization accuracy = 6.5E-19, # of iterations =   1
     Electrolyte accuracy = 1.6E-18, # of iterations =   2

     total cpu time spent up to now is       33.8 secs

     total energy              =   -4888.86030003 Ry
     estimated scf accuracy    <       0.00596910 Ry
     electrostatic embedding   =       0.02425659 Ry
     electrolyte free energy   =       0.00172904 Ry
     correction to one-el term =      63.76966362 Ry

     iteration # 34     ecut=    40.00 Ry     beta= 0.05
     Davidson diagonalization with overlap
     ethr =  5.85E-09,  avg # of iterations =  4.5

     negative rho (up, down):  2.119E-03 0.000E+00

     add environment contribution to local potential
     Polarization accuracy = 2.9E-18, # of iterations =  41
     Polarization accuracy = 1.7E-19, # of iterations =   1
     Electrolyte accuracy = 4.3E-19, # of iterations =   2

     total cpu time spent up to now is       34.8 secs

     total energy              =   -4888.86034994 Ry
     estimated scf accuracy    <       0.00687711 Ry
     electrostatic embedding   =       0.02425766 Ry
     electrolyte free energy   =       0.00172904 Ry
     correction to one-el term =      63.77584138 Ry

     iteration # 35     ecut=    40.00 Ry     beta= 0.05
     Davidson diagonalization with overlap
     ethr =  5.85E-09,  avg # of iterations =  5.5

     negative rho (up, down):  2.056E-03 0.000E+00

     add environment contribution to local potential
     Polarization accuracy = 2.6E-18, # of iterations =  41
     Polarization accuracy = 1.5E-19, # of iterations =   1
     Electrolyte accuracy = 4.2E-19, # of iterations =   2

     total cpu time spent up to now is       35.7 secs

     total energy              =   -4888.86036593 Ry
     estimated scf accuracy    <       0.00787386 Ry
     electrostatic embedding   =       0.02425433 Ry
     electrolyte free energy   =       0.00172904 Ry
     correction to one-el term =      63.77677115 Ry

     iteration # 36     ecut=    40.00 Ry     beta= 0.05
     Davidson diagonalization with overlap
     ethr =  5.85E-09,  avg # of iterations =  1.5

     negative rho (up, down):  2.014E-03 0.000E+00

     add environment contribution to local potential
     Polarization accuracy = 2.4E-18, # of iterations =  41
     Polarization accuracy = 1.4E-19, # of iterations =   1
     Electrolyte accuracy = 3.7E-19, # of iterations =   2

     total cpu time spent up to now is       36.5 secs

     total energy              =   -4888.86040948 Ry
     estimated scf accuracy    <       0.00826087 Ry
     electrostatic embedding   =       0.02424888 Ry
     electrolyte free energy   =       0.00172904 Ry
     correction to one-el term =      63.77416978 Ry

     iteration # 37     ecut=    40.00 Ry     beta= 0.05
     Davidson diagonalization with overlap
     ethr =  5.85E-09,  avg # of iterations =  1.5

     negative rho (up, down):  1.957E-03 0.000E+00

     add environment contribution to local potential
     Polarization accuracy = 2.2E-18, # of iterations =  41
     Polarization accuracy = 1.6E-19, # of iterations =   1
     Electrolyte accuracy = 3.1E-19, # of iterations =   2

     total cpu time spent up to now is       37.3 secs

     total energy              =   -4888.86044539 Ry
     estimated scf accuracy    <       0.00879326 Ry
     electrostatic embedding   =       0.02425026 Ry
     electrolyte free energy   =       0.00172904 Ry
     correction to one-el term =      63.78180304 Ry

     iteration # 38     ecut=    40.00 Ry     beta= 0.05
     Davidson diagonalization with overlap
     ethr =  5.85E-09,  avg # of iterations =  1.5

     negative rho (up, down):  1.916E-03 0.000E+00

     add environment contribution to local potential
     Polarization accuracy = 2.0E-18, # of iterations =  41
     Polarization accuracy = 3.3E-19, # of iterations =   1
     Electrolyte accuracy = 1.0E-18, # of iterations =   2

     total cpu time spent up to now is       38.1 secs

     total energy              =   -4888.86049471 Ry
     estimated scf accuracy    <       0.00957944 Ry
     electrostatic embedding   =       0.02424315 Ry
     electrolyte free energy   =       0.00172904 Ry
     correction to one-el term =      63.77536381 Ry

     iteration # 39     ecut=    40.00 Ry     beta= 0.05
     Davidson diagonalization with overlap
     ethr =  5.85E-09,  avg # of iterations =  1.5

     negative rho (up, down):  1.881E-03 0.000E+00

     add environment contribution to local potential
     Polarization accuracy = 1.9E-18, # of iterations =  41
     Polarization accuracy = 3.6E-19, # of iterations =   1
     Electrolyte accuracy = 8.3E-19, # of iterations =   2

     total cpu time spent up to now is       38.9 secs

     total energy              =   -4888.86053127 Ry
     estimated scf accuracy    <       0.01039167 Ry
     electrostatic embedding   =       0.02424254 Ry
     electrolyte free energy   =       0.00172904 Ry
     correction to one-el term =      63.77987783 Ry

     iteration # 40     ecut=    40.00 Ry     beta= 0.05
     Davidson diagonalization with overlap
     ethr =  5.85E-09,  avg # of iterations =  1.5

     negative rho (up, down):  1.828E-03 0.000E+00

     add environment contribution to local potential
     Polarization accuracy = 1.7E-18, # of iterations =  41
     Polarization accuracy = 9.3E-20, # of iterations =   1
     Electrolyte accuracy = 2.4E-19, # of iterations =   2

     total cpu time spent up to now is       39.7 secs

     total energy              =   -4888.86055616 Ry
     estimated scf accuracy    <       0.01107942 Ry
     electrostatic embedding   =       0.02424204 Ry
     electrolyte free energy   =       0.00172904 Ry
     correction to one-el term =      63.78441619 Ry

     iteration # 41     ecut=    40.00 Ry     beta= 0.05
     Davidson diagonalization with overlap
     ethr =  5.85E-09,  avg # of iterations =  1.0

     negative rho (up, down):  1.832E-03 0.000E+00

     add environment contribution to local potential
     Polarization accuracy = 1.6E-18, # of iterations =  41
     Polarization accuracy = 3.2E-19, # of iterations =   1
     Electrolyte accuracy = 6.9E-19, # of iterations =   2

     total cpu time spent up to now is       40.5 secs

     total energy              =   -4888.86057888 Ry
     estimated scf accuracy    <       0.01179050 Ry
     electrostatic embedding   =       0.02423352 Ry
     electrolyte free energy   =       0.00172904 Ry
     correction to one-el term =      63.77285833 Ry

     iteration # 42     ecut=    40.00 Ry     beta= 0.05
     Davidson diagonalization with overlap
     ethr =  5.85E-09,  avg # of iterations =  1.5

     negative rho (up, down):  1.805E-03 0.000E+00

     add environment contribution to local potential
     Polarization accuracy = 1.5E-18, # of iterations =  41
     Polarization accuracy = 3.1E-19, # of iterations =   1
     Electrolyte accuracy = 4.9E-19, # of iterations =   2

     total cpu time spent up to now is       41.3 secs

     total energy              =   -4888.86063468 Ry
     estimated scf accuracy    <       0.01192767 Ry
     electrostatic embedding   =       0.02423855 Ry
     electrolyte free energy   =       0.00172904 Ry
     correction to one-el term =      63.78635917 Ry

     iteration # 43     ecut=    40.00 Ry     beta= 0.05
     Davidson diagonalization with overlap
     ethr =  5.85E-09,  avg # of iterations =  1.5

     negative rho (up, down):  1.784E-03 0.000E+00

     add environment contribution to local potential
     Polarization accuracy = 1.4E-18, # of iterations =  41
     Polarization accuracy = 9.0E-20, # of iterations =   1
     Electrolyte accuracy = 3.4E-19, # of iterations =   2

     total cpu time spent up to now is       42.1 secs

     total energy              =   -4888.86065634 Ry
     estimated scf accuracy    <       0.01283543 Ry
     electrostatic embedding   =       0.02424174 Ry
     electrolyte free energy   =       0.00172904 Ry
     correction to one-el term =      63.78653539 Ry

     iteration # 44     ecut=    40.00 Ry     beta= 0.05
     Davidson diagonalization with overlap
     ethr =  5.85E-09,  avg # of iterations =  1.5

     negative rho (up, down):  1.774E-03 0.000E+00

     add environment contribution to local potential
     Polarization accuracy = 1.4E-18, # of iterations =  41
     Polarization accuracy = 2.5E-19, # of iterations =   1
     Electrolyte accuracy = 4.6E-19, # of iterations =   2

     total cpu time spent up to now is       42.9 secs

     total energy              =   -4888.86069851 Ry
     estimated scf accuracy    <       0.01356913 Ry
     electrostatic embedding   =       0.02423847 Ry
     electrolyte free energy   =       0.00172904 Ry
     correction to one-el term =      63.78873057 Ry

     iteration # 45     ecut=    40.00 Ry     beta= 0.05
     Davidson diagonalization with overlap
     ethr =  5.85E-09,  avg # of iterations =  1.5

     negative rho (up, down):  1.786E-03 0.000E+00

     add environment contribution to local potential
     Polarization accuracy = 1.3E-18, # of iterations =  41
     Polarization accuracy = 2.3E-19, # of iterations =   1
     Electrolyte accuracy = 6.9E-19, # of iterations =   2

     total cpu time spent up to now is       43.7 secs

     total energy              =   -4888.86080154 Ry
     estimated scf accuracy    <       0.01418844 Ry
     electrostatic embedding   =       0.02424092 Ry
     electrolyte free energy   =       0.00172904 Ry
     correction to one-el term =      63.79252875 Ry

     iteration # 46     ecut=    40.00 Ry     beta= 0.05
     Davidson diagonalization with overlap
     ethr =  5.85E-09,  avg # of iterations =  1.5
     Minimization algorithm failed to find Fermi energy: reverting to bisection
     Possible cause: smearing is larger than the electronic band-gap.

     negative rho (up, down):  1.752E-03 0.000E+00

     add environment contribution to local potential
     Polarization accuracy = 1.2E-18, # of iterations =  41
     Polarization accuracy = 8.6E-20, # of iterations =   1
     Electrolyte accuracy = 3.3E-19, # of iterations =   2

     total cpu time spent up to now is       44.6 secs

     total energy              =   -4888.86057330 Ry
     estimated scf accuracy    <       0.01539355 Ry
     electrostatic embedding   =       0.02425517 Ry
     electrolyte free energy   =       0.00172904 Ry
     correction to one-el term =      63.81370314 Ry

     iteration # 47     ecut=    40.00 Ry     beta= 0.05
     Davidson diagonalization with overlap
     ethr =  5.85E-09,  avg # of iterations =  1.5

     negative rho (up, down):  1.737E-03 0.000E+00

     add environment contribution to local potential
     Polarization accuracy = 1.2E-18, # of iterations =  41
     Polarization accuracy = 6.6E-20, # of iterations =   1
     Electrolyte accuracy = 2.0E-19, # of iterations =   2

     total cpu time spent up to now is       45.4 secs

     total energy              =   -4888.86105756 Ry
     estimated scf accuracy    <       0.01400836 Ry
     electrostatic embedding   =       0.02423237 Ry
     electrolyte free energy   =       0.00172904 Ry
     correction to one-el term =      63.78925734 Ry

     iteration # 48     ecut=    40.00 Ry     beta= 0.05
     Davidson diagonalization with overlap
     ethr =  5.85E-09,  avg # of iterations =  2.0
     Minimization algorithm failed to find Fermi energy: reverting to bisection
     Possible cause: smearing is larger than the electronic band-gap.

     negative rho (up, down):  1.747E-03 0.000E+00

     add environment contribution to local potential
     Polarization accuracy = 1.2E-18, # of iterations =  41
     Polarization accuracy = 6.3E-20, # of iterations =   1
     Electrolyte accuracy = 1.6E-19, # of iterations =   2

     total cpu time spent up to now is       46.2 secs

     total energy              =   -4888.86031433 Ry
     estimated scf accuracy    <       0.01871543 Ry
     electrostatic embedding   =       0.02425647 Ry
     electrolyte free energy   =       0.00172904 Ry
     correction to one-el term =      63.80400546 Ry

     iteration # 49     ecut=    40.00 Ry     beta= 0.05
     Davidson diagonalization with overlap
     ethr =  5.85E-09,  avg # of iterations =  2.0

     negative rho (up, down):  1.760E-03 0.000E+00

     add environment contribution to local potential
     Polarization accuracy = 1.1E-18, # of iterations =  41
     Polarization accuracy = 5.9E-20, # of iterations =   1
     Electrolyte accuracy = 1.6E-19, # of iterations =   2

     total cpu time spent up to now is       47.1 secs

     total energy              =   -4888.86072362 Ry
     estimated scf accuracy    <       0.01275977 Ry
     electrostatic embedding   =       0.02422687 Ry
     electrolyte free energy   =       0.00172904 Ry
     correction to one-el term =      63.80063095 Ry

     iteration # 50     ecut=    40.00 Ry     beta= 0.05
     Davidson diagonalization with overlap
     ethr =  5.85E-09,  avg # of iterations =  1.5
     Minimization algorithm failed to find Fermi energy: reverting to bisection
     Possible cause: smearing is larger than the electronic band-gap.

     negative rho (up, down):  1.732E-03 0.000E+00

     add environment contribution to local potential
     Polarization accuracy = 1.1E-18, # of iterations =  41
     Polarization accuracy = 6.2E-20, # of iterations =   1
     Electrolyte accuracy = 1.9E-19, # of iterations =   2

     total cpu time spent up to now is       47.9 secs

     total energy              =   -4888.86117518 Ry
     estimated scf accuracy    <       0.01356490 Ry
     electrostatic embedding   =       0.02422984 Ry
     electrolyte free energy   =       0.00172904 Ry
     correction to one-el term =      63.79739532 Ry

     iteration # 51     ecut=    40.00 Ry     beta= 0.05
     Davidson diagonalization with overlap
     ethr =  5.85E-09,  avg # of iterations =  2.0
     Minimization algorithm failed to find Fermi energy: reverting to bisection
     Possible cause: smearing is larger than the electronic band-gap.

     negative rho (up, down):  1.714E-03 0.000E+00

     add environment contribution to local potential
     Polarization accuracy = 9.3E-19, # of iterations =  41
     Polarization accuracy = 5.2E-20, # of iterations =   1
     Electrolyte accuracy = 1.2E-19, # of iterations =   2

     total cpu time spent up to now is       48.7 secs

     total energy              =   -4888.86024056 Ry
     estimated scf accuracy    <       0.01988531 Ry
     electrostatic embedding   =       0.02425925 Ry
     electrolyte free energy   =       0.00172904 Ry
     correction to one-el term =      63.81084497 Ry

     iteration # 52     ecut=    40.00 Ry     beta= 0.05
     Davidson diagonalization with overlap
     ethr =  5.85E-09,  avg # of iterations =  2.0
     Minimization algorithm failed to find Fermi energy: reverting to bisection
     Possible cause: smearing is larger than the electronic band-gap.

     negative rho (up, down):  1.786E-03 0.000E+00

     add environment contribution to local potential
     Polarization accuracy = 1.0E-18, # of iterations =  41
     Polarization accuracy = 1.9E-19, # of iterations =   1
     Electrolyte accuracy = 4.6E-19, # of iterations =   2

     total cpu time spent up to now is       49.6 secs

     total energy              =   -4888.86073398 Ry
     estimated scf accuracy    <       0.01336209 Ry
     electrostatic embedding   =       0.02421414 Ry
     electrolyte free energy   =       0.00172904 Ry
     correction to one-el term =      63.78951545 Ry

     iteration # 53     ecut=    40.00 Ry     beta= 0.05
     Davidson diagonalization with overlap
     ethr =  5.85E-09,  avg # of iterations =  2.0

     negative rho (up, down):  1.776E-03 0.000E+00

     add environment contribution to local potential
     Polarization accuracy = 1.1E-18, # of iterations =  41
     Polarization accuracy = 1.2E-19, # of iterations =   1
     Electrolyte accuracy = 4.5E-19, # of iterations =   2

     total cpu time spent up to now is       50.4 secs

     total energy              =   -4888.86119611 Ry
     estimated scf accuracy    <       0.01349820 Ry
     electrostatic embedding   =       0.02422027 Ry
     electrolyte free energy   =       0.00172904 Ry
     correction to one-el term =      63.82132339 Ry

     iteration # 54     ecut=    40.00 Ry     beta= 0.05
     Davidson diagonalization with overlap
     ethr =  5.85E-09,  avg # of iterations =  2.0

     negative rho (up, down):  1.723E-03 0.000E+00

     add environment contribution to local potential
     Polarization accuracy = 4.6E-18, # of iterations =  40
     Polarization accuracy = 2.2E-19, # of iterations =   1
     Electrolyte accuracy = 4.7E-19, # of iterations =   2

     total cpu time spent up to now is       51.3 secs

     total energy              =   -4888.85887627 Ry
     estimated scf accuracy    <       0.01906496 Ry
     electrostatic embedding   =       0.02426478 Ry
     electrolyte free energy   =       0.00172904 Ry
     correction to one-el term =      63.83068680 Ry

     iteration # 55     ecut=    40.00 Ry     beta= 0.05
     Davidson diagonalization with overlap
     ethr =  5.85E-09,  avg # of iterations =  3.0

     negative rho (up, down):  1.657E-03 0.000E+00

     add environment contribution to local potential
     Polarization accuracy = 2.3E-18, # of iterations =  41
     Polarization accuracy = 2.8E-19, # of iterations =   1
     Electrolyte accuracy = 5.0E-19, # of iterations =   2

     total cpu time spent up to now is       52.3 secs

     total energy              =   -4888.86037014 Ry
     estimated scf accuracy    <       0.00355149 Ry
     electrostatic embedding   =       0.02406718 Ry
     electrolyte free energy   =       0.00172904 Ry
     correction to one-el term =      63.71980341 Ry

     iteration # 56     ecut=    40.00 Ry     beta= 0.05
     Davidson diagonalization with overlap
     ethr =  5.85E-09,  avg # of iterations =  1.0

     negative rho (up, down):  1.808E-03 0.000E+00

     add environment contribution to local potential
     Polarization accuracy = 4.4E-18, # of iterations =  40
     Polarization accuracy = 2.4E-19, # of iterations =   1
     Electrolyte accuracy = 4.3E-19, # of iterations =   2

     total cpu time spent up to now is       53.0 secs

     total energy              =   -4888.85983166 Ry
     estimated scf accuracy    <       0.00456923 Ry
     electrostatic embedding   =       0.02403895 Ry
     electrolyte free energy   =       0.00172904 Ry
     correction to one-el term =      63.66622375 Ry

     iteration # 57     ecut=    40.00 Ry     beta= 0.05
     Davidson diagonalization with overlap
     ethr =  5.85E-09,  avg # of iterations =  3.0
     Minimization algorithm failed to find Fermi energy: reverting to bisection
     Possible cause: smearing is larger than the electronic band-gap.

     negative rho (up, down):  1.801E-03 0.000E+00

     add environment contribution to local potential
     Polarization accuracy = 4.2E-18, # of iterations =  40
     Polarization accuracy = 1.9E-19, # of iterations =   1
     Electrolyte accuracy = 4.1E-19, # of iterations =   2

     total cpu time spent up to now is       54.0 secs

     total energy              =   -4888.86020155 Ry
     estimated scf accuracy    <       0.00023476 Ry
     electrostatic embedding   =       0.02397382 Ry
     electrolyte free energy   =       0.00172904 Ry
     correction to one-el term =      63.75676746 Ry

     iteration # 58     ecut=    40.00 Ry     beta= 0.05
     Davidson diagonalization with overlap
     ethr =  5.85E-09,  avg # of iterations =  1.0
     Minimization algorithm failed to find Fermi energy: reverting to bisection
     Possible cause: smearing is larger than the electronic band-gap.

     negative rho (up, down):  1.799E-03 0.000E+00

     add environment contribution to local potential
     Polarization accuracy = 4.5E-18, # of iterations =  40
     Polarization accuracy = 2.1E-19, # of iterations =   1
     Electrolyte accuracy = 4.6E-19, # of iterations =   2

     total cpu time spent up to now is       54.8 secs

     total energy              =   -4888.86019625 Ry
     estimated scf accuracy    <       0.00008076 Ry
     electrostatic embedding   =       0.02394590 Ry
     electrolyte free energy   =       0.00172904 Ry
     correction to one-el term =      63.75115923 Ry

     iteration # 59     ecut=    40.00 Ry     beta= 0.05
     Davidson diagonalization with overlap
     ethr =  5.85E-09,  avg # of iterations =  2.0
     Minimization algorithm failed to find Fermi energy: reverting to bisection
     Possible cause: smearing is larger than the electronic band-gap.

     negative rho (up, down):  1.829E-03 0.000E+00

     add environment contribution to local potential
     Polarization accuracy = 4.9E-18, # of iterations =  40
     Polarization accuracy = 2.3E-19, # of iterations =   1
     Electrolyte accuracy = 4.1E-19, # of iterations =   2

     total cpu time spent up to now is       55.7 secs

     total energy              =   -4888.86020144 Ry
     estimated scf accuracy    <       0.00008102 Ry
     electrostatic embedding   =       0.02390121 Ry
     electrolyte free energy   =       0.00172904 Ry
     correction to one-el term =      63.74570213 Ry

     iteration # 60     ecut=    40.00 Ry     beta= 0.05
     Davidson diagonalization with overlap
     ethr =  5.85E-09,  avg # of iterations =  2.0
     Minimization algorithm failed to find Fermi energy: reverting to bisection
     Possible cause: smearing is larger than the electronic band-gap.

     negative rho (up, down):  1.825E-03 0.000E+00

     add environment contribution to local potential
     Polarization accuracy = 4.8E-18, # of iterations =  40
     Polarization accuracy = 2.2E-19, # of iterations =   1
     Electrolyte accuracy = 4.9E-19, # of iterations =   2

     total cpu time spent up to now is       56.5 secs

     total energy              =   -4888.86021711 Ry
     estimated scf accuracy    <       0.00001833 Ry
     electrostatic embedding   =       0.02396353 Ry
     electrolyte free energy   =       0.00172904 Ry
     correction to one-el term =      63.77997392 Ry

     iteration # 61     ecut=    40.00 Ry     beta= 0.05
     Davidson diagonalization with overlap
     ethr =  5.85E-09,  avg # of iterations =  1.0
     Minimization algorithm failed to find Fermi energy: reverting to bisection
     Possible cause: smearing is larger than the electronic band-gap.

     negative rho (up, down):  1.773E-03 0.000E+00

     add environment contribution to local potential
     Polarization accuracy = 4.5E-18, # of iterations =  40
     Polarization accuracy = 2.1E-19, # of iterations =   1
     Electrolyte accuracy = 4.5E-19, # of iterations =   2

     total cpu time spent up to now is       57.3 secs

     total energy              =   -4888.86022237 Ry
     estimated scf accuracy    <       0.00000213 Ry
     electrostatic embedding   =       0.02394108 Ry
     electrolyte free energy   =       0.00172904 Ry
     correction to one-el term =      63.77400294 Ry

     iteration # 62     ecut=    40.00 Ry     beta= 0.05
     Davidson diagonalization with overlap
     ethr =  8.94E-10,  avg # of iterations =  2.0
     Minimization algorithm failed to find Fermi energy: reverting to bisection
     Possible cause: smearing is larger than the electronic band-gap.

     negative rho (up, down):  1.936E-03 0.000E+00

     total cpu time spent up to now is      848.4 secs

     End of self-consistent calculation

          k = 0.2500 0.1443 0.0000 ( 19495 PWs)   bands (ev):

  -117.6343-117.6280-117.5436-117.4309-117.3467-117.2599-117.2549-117.1588
  -117.1069-117.0785-117.0738-116.9671 -75.1782 -75.1494 -75.0608 -74.9884
   -74.9792 -74.9275 -74.8947 -74.8761 -74.8718 -74.8604 -74.8354 -74.7769
   -74.7590 -74.7399 -74.7232 -74.6875 -74.6649 -74.6620 -74.6353 -74.6338
   -74.6323 -74.6112 -74.5667 -74.5462 -74.5351 -74.5209 -74.5081 -74.4991
   -74.4602 -74.4580 -74.4359 -74.4250 -74.4207 -74.3993 -74.3505 -74.3400
   -28.1516 -15.3240 -13.0214 -12.2051 -11.6717 -11.6151 -10.6406 -10.0787
    -9.5975  -9.4822  -9.4767  -9.3673  -9.2529  -9.2225  -8.9810  -8.9070
    -8.8944  -8.7831  -8.7644  -8.7166  -8.3550  -8.3426  -8.2654  -8.1773
    -8.0616  -7.9719  -7.9428  -7.9032  -7.8978  -7.8650  -7.8258  -7.7308
    -7.6998  -7.6435  -7.6098  -7.5848  -7.5593  -7.5401  -7.5021  -7.3856
    -7.3320  -7.2919  -7.2270  -7.2016  -7.1473  -7.0799  -7.0336  -6.9900
    -6.9734  -6.9692  -6.8487  -6.8114  -6.8091  -6.7267  -6.6418  -6.6223
    -6.6040  -6.5979  -6.5467  -6.5078  -6.4870  -6.4645  -6.4107  -6.3981
    -6.3665  -6.3267  -6.2911  -6.2822  -5.7602  -5.1332  -4.9959  -4.5895
    -4.2248  -3.9741  -3.5303  -2.8475  -2.3257  -1.9530  -1.3783  -0.7240
    -0.1582   0.1272   0.2394   0.2453   0.4183   0.8684   1.0283   1.1049
     1.5510   1.6427   2.1030   2.1638   2.4298   3.0003   3.5121

          k = 0.2500-0.4330 0.0000 ( 19534 PWs)   bands (ev):

  -117.6331-117.6292-117.5436-117.4309-117.3468-117.2583-117.2565-117.1587
  -117.1070-117.0769-117.0754-116.9671 -75.1659 -75.1605 -75.0605 -74.9854
   -74.9815 -74.9151 -74.9091 -74.8754 -74.8715 -74.8601 -74.8259 -74.7763
   -74.7589 -74.7501 -74.7213 -74.6683 -74.6658 -74.6599 -74.6557 -74.6359
   -74.6307 -74.5981 -74.5624 -74.5592 -74.5213 -74.5206 -74.5183 -74.5060
   -74.4664 -74.4555 -74.4357 -74.4235 -74.4222 -74.3993 -74.3520 -74.3400
   -28.1510 -15.2280 -12.4171 -11.9584 -11.6525 -11.6296 -10.5128 -10.4803
   -10.0454  -9.3942  -9.3159  -9.0843  -8.9742  -8.8797  -8.7881  -8.7731
    -8.6918  -8.5898  -8.5217  -8.4899  -8.3801  -8.3373  -8.3224  -8.2433
    -8.2321  -8.1842  -8.1086  -8.0481  -8.0097  -7.9738  -7.8498  -7.8290
    -7.8061  -7.7671  -7.7479  -7.6917  -7.6568  -7.6216  -7.5833  -7.5430
    -7.4707  -7.4200  -7.4040  -7.3961  -7.2839  -7.2524  -7.2050  -7.1675
    -7.1396  -7.0639  -7.0533  -6.9783  -6.9334  -6.8557  -6.8463  -6.7883
    -6.7393  -6.7180  -6.6644  -6.5982  -6.5256  -6.5019  -6.4840  -6.4562
    -6.4437  -6.4048  -6.3140  -6.2559  -6.1032  -5.8624  -5.3905  -4.4143
    -3.9699  -3.3569  -2.5255  -2.3874  -1.8391  -1.7401  -1.2570  -0.5545
     0.3850   0.6852   0.7358   1.0993   1.1799   1.4939   1.7236   1.8654
     1.9980   2.4385   2.4814   2.9362   2.9732   3.0025   3.0839

     the Fermi energy is    -4.9268 ev

!    total energy              =   -4888.86022801 Ry
     estimated scf accuracy    <       0.00000100 Ry
     smearing contrib. (-TS)   =       0.00001529 Ry
     internal energy E=F+TS    =   -4888.86024331 Ry

     The total energy is F=E-TS. E is the sum of the following terms:
     one-electron contribution =  -54574.84871679 Ry
     hartree contribution      =   27251.82062043 Ry
     xc contribution           =    -476.11914249 Ry
     ewald contribution        =   22846.51891662 Ry
     electrostatic embedding   =       0.02390865 Ry
     electrolyte free energy   =       0.00172904 Ry
     correction to one-el term =      63.74244123 Ry

     WARNING: you are using the parabolic pbc correction;
              the potential shift above must be added to 
              band and Fermi energies.

     convergence has been achieved in  62 iterations

     negative rho (up, down):  1.936E-03 0.000E+00

     Forces acting on atoms (cartesian axes, Ry/au):

     atom    1 type  1   force =    -0.00127734   -0.00095824   -0.00008199
     atom    2 type  1   force =     0.00087808    0.00069952   -0.00050777
     atom    3 type  1   force =     0.00025547    0.00053440    0.00169687
     atom    4 type  1   force =    -0.00074714    0.00052516    0.00300550
     atom    5 type  1   force =     0.00053242   -0.00075950    0.00018391
     atom    6 type  1   force =     0.00018345   -0.00061176   -0.00078280
     atom    7 type  1   force =     0.00030993   -0.00118281    0.00267551
     atom    8 type  1   force =    -0.00055717    0.00111884    0.00023109
     atom    9 type  1   force =    -0.00051655    0.00050880   -0.00133686
     atom   10 type  1   force =     0.00014588   -0.00034019    0.00455348
     atom   11 type  1   force =     0.00000836    0.00001873   -0.00006017
     atom   12 type  1   force =    -0.00100507   -0.00046294    0.00006916
     atom   13 type  2   force =     0.00069726    0.00027443   -0.00379260
     atom   14 type  3   force =     0.00109242    0.00063557   -0.00585334

     Total force =     0.007914     Total SCF correction =     0.002415
     SCF correction compared to forces is large: reduce conv_thr to get better values

     Writing all to output data dir ./output/opt.save/ :
     XML data file, charge density, pseudopotentials, collected wavefunctions
 
     init_run     :      0.46s CPU      0.59s WALL (       1 calls)
     electrons    :    265.19s CPU    847.66s WALL (       1 calls)
     forces       :      0.22s CPU      0.26s WALL (       1 calls)

     Called by init_run:
     wfcinit      :      0.17s CPU      0.18s WALL (       1 calls)
     potinit      :      0.03s CPU      0.05s WALL (       1 calls)
     hinit0       :      0.13s CPU      0.16s WALL (       1 calls)

     Called by electrons:
     c_bands      :     30.28s CPU     30.57s WALL (      62 calls)
     sum_band     :      7.27s CPU      9.02s WALL (      62 calls)
     v_of_rho     :      0.98s CPU      1.09s WALL (      63 calls)
     newd         :      3.40s CPU      5.08s WALL (      63 calls)
     mix_rho      :      0.21s CPU      0.22s WALL (      62 calls)

     Called by c_bands:
     init_us_2    :      0.34s CPU      0.35s WALL (     252 calls)
     cegterg      :     29.06s CPU     29.26s WALL (     124 calls)

     Called by *egterg:
     cdiaghg      :     10.60s CPU     10.61s WALL (     545 calls)
     h_psi        :     11.66s CPU     11.83s WALL (     547 calls)
     s_psi        :      0.96s CPU      0.97s WALL (     547 calls)
     g_psi        :      0.05s CPU      0.05s WALL (     421 calls)

     Called by h_psi:
     h_psi:calbec :      1.46s CPU      1.47s WALL (     547 calls)
     vloc_psi     :      9.07s CPU      9.21s WALL (     547 calls)
     add_vuspsi   :      0.99s CPU      1.01s WALL (     547 calls)

     General routines
     calbec       :      2.10s CPU      2.12s WALL (     679 calls)
     fft          :     27.28s CPU     27.38s WALL (     828 calls)
     ffts         :      0.03s CPU      0.03s WALL (     125 calls)
     fftw         :      9.18s CPU      9.33s WALL (   95770 calls)
     interpolate  :     26.54s CPU     26.56s WALL (      63 calls)
 
     Parallel routines
 
     Environ routines
 
     PWSCF        :   4m26.12s CPU  14m 8.97s WALL

 
   This run was terminated on:  16:34:35   9Jun2024            

=------------------------------------------------------------------------------=
   JOB DONE.
=------------------------------------------------------------------------------=
