
     Program PWSCF v.7.2 starts on  4Jun2024 at 13:27:26 

     This program is part of the open-source Quantum ESPRESSO suite
     for quantum simulation of materials; please cite
         "P. Giannozzi et al., J. Phys.:Condens. Matter 21 395502 (2009);
         "P. Giannozzi et al., J. Phys.:Condens. Matter 29 465901 (2017);
         "P. Giannozzi et al., J. Chem. Phys. 152 154105 (2020);
          URL http://www.quantum-espresso.org", 
     in publications or presentations arising from this work. More details at
     http://www.quantum-espresso.org/quote

     Parallel version (MPI), running on    16 processors

     MPI processes distributed on     1 nodes
     182192 MiB available memory on the printing compute node when the environment starts
 
     Reading input from nscf.in
Warning: card &IONS ignored
Warning: card / ignored
Warning: card &CELL ignored
Warning: card / ignored

     Current dimensions of program PWSCF are:
     Max number of different atomic species (ntypx) = 10
     Max number of k-points (npk) =  40000
     Max angular momentum in pseudopotentials (lmaxx) =  4

     Atomic positions and unit cell read from directory:
     ./output/opt.save/
 

     File ./output/opt.update deleted, as requested

     File ./output/opt.bfgs deleted, as requested
     Message from routine setup:
     using ibrav=0 with symmetry is DISCOURAGED, use correct ibrav instead
 
     K-points division:     npool     =       2
     R & G space division:  proc/nbgrp/npool/nimage =       8
     Subspace diagonalization in iterative solution of the eigenvalue problem:
     a serial algorithm will be used

 
     Parallelization info
     --------------------
     sticks:   dense  smooth     PW     G-vecs:    dense   smooth      PW
     Min          64      31     12                  977      340      80
     Max          65      32     13                  979      344      81
     Sum         517     253     97                 7823     2741     645
 
     Using Slab Decomposition
 


     bravais-lattice index     =            0
     lattice parameter (alat)  =       4.8698  a.u.
     unit-cell volume          =      81.9855 (a.u.)^3
     number of atoms/cell      =            1
     number of atomic types    =            1
     number of electrons       =        19.00
     number of Kohn-Sham states=           14
     kinetic-energy cutoff     =      40.0000  Ry
     charge density cutoff     =     320.0000  Ry
     Exchange-correlation= SLA  PW   PBE  PBE
                           (   1   4   3   4   0   0   0)

     celldm(1)=   4.869781  celldm(2)=   0.000000  celldm(3)=   0.000000
     celldm(4)=   0.000000  celldm(5)=   0.000000  celldm(6)=   0.000000

     crystal axes: (cart. coord. in units of alat)
               a(1) = (  -0.000000   0.708043   0.708043 )  
               a(2) = (   0.708043  -0.000000   0.708043 )  
               a(3) = (   0.708043   0.708043  -0.000000 )  

     reciprocal axes: (cart. coord. in units 2 pi/alat)
               b(1) = ( -0.706172  0.706172  0.706172 )  
               b(2) = (  0.706172 -0.706172  0.706172 )  
               b(3) = (  0.706172  0.706172 -0.706172 )  


     PseudoPot. # 1 for Cu read from file:
     ../../pseudo/cu_pbe_v1.2.uspp.F.UPF
     MD5 check sum: 6e991ff952a84172a2a52a1c1e996048
     Pseudo is Ultrasoft + core correction, Zval = 19.0
     Generated by new atomic code, or converted to UPF format
     Using radial grid of  867 points,  6 beta functions with: 
                l(1) =   0
                l(2) =   0
                l(3) =   1
                l(4) =   1
                l(5) =   2
                l(6) =   2
     Q(r) pseudized with  8 coefficients,  rinner =    1.150   1.150   1.150
                                                       1.150   1.150

     atomic species   valence    mass     pseudopotential
        Cu            19.00    63.54600     Cu( 1.00)

     Starting magnetic structure 
     atomic species   magnetization
        Cu           1.000

     48 Sym. Ops., with inversion, found



   Cartesian axes

     site n.     atom                  positions (alat units)
         1           Cu  tau(   1) = (   0.0000000   0.0000000   0.0000000  )

     number of k points=   408  Methfessel-Paxton smearing, width (Ry)=  0.0100

     Number of k-points >= 100: set verbosity='high' to print them.

     Dense  grid:     7823 G-vectors     FFT dimensions: (  27,  27,  27)

     Smooth grid:     2741 G-vectors     FFT dimensions: (  20,  20,  20)

     Estimated max dynamical RAM per process >       3.33 MB

     Estimated total dynamical RAM >      53.35 MB

     Check: negative core charge=   -0.000001
     Generating pointlists ...
     new r_m :   0.4130 (alat units)  2.0114 (a.u.) for type    1

     The potential is recalculated from file :
     ./output/opt.save/charge-density

     Starting wfcs are   13 randomized atomic wfcs +    1 random wfcs

     Band Structure Calculation
     Davidson diagonalization with overlap

     ethr =  5.26E-11,  avg # of iterations = 19.9

     total cpu time spent up to now is        5.8 secs

     End of band structure calculation

     Number of k-points >= 100: set verbosity='high' to print the bands.

     the Fermi energy is    15.5541 ev
     (compare with:    15.4447 eV, computed in scf)

     Writing all to output data dir ./output/opt.save/
 
     init_run     :      0.04s CPU      0.05s WALL (       1 calls)
     electrons    :      5.11s CPU      5.59s WALL (       1 calls)

     Called by init_run:
     wfcinit      :      0.00s CPU      0.00s WALL (       1 calls)
     potinit      :      0.01s CPU      0.01s WALL (       1 calls)
     hinit0       :      0.03s CPU      0.03s WALL (       1 calls)

     Called by electrons:
     c_bands      :      5.10s CPU      5.58s WALL (       1 calls)
     v_of_rho     :      0.00s CPU      0.01s WALL (       1 calls)
     newd         :      0.00s CPU      0.00s WALL (       1 calls)

     Called by c_bands:
     init_us_2    :      0.01s CPU      0.01s WALL (     408 calls)
     init_us_2:cp :      0.00s CPU      0.01s WALL (     408 calls)
     cegterg      :      4.77s CPU      5.09s WALL (     551 calls)

     Called by *egterg:
     cdiaghg      :      1.77s CPU      1.89s WALL (    8531 calls)
     h_psi        :      2.72s CPU      2.92s WALL (    9082 calls)
     s_psi        :      0.04s CPU      0.04s WALL (    9082 calls)
     g_psi        :      0.01s CPU      0.02s WALL (    8123 calls)

     Called by h_psi:
     h_psi:calbec :      0.10s CPU      0.11s WALL (    9082 calls)
     vloc_psi     :      2.54s CPU      2.72s WALL (    9082 calls)
     add_vuspsi   :      0.04s CPU      0.05s WALL (    9082 calls)

     General routines
     calbec       :      0.09s CPU      0.10s WALL (    9082 calls)
     fft          :      0.01s CPU      0.01s WALL (      23 calls)
     ffts         :      0.00s CPU      0.00s WALL (       2 calls)
     fftw         :      2.18s CPU      2.33s WALL (  179790 calls)
     interpolate  :      0.00s CPU      0.00s WALL (       2 calls)
     davcio       :      0.01s CPU      0.01s WALL (     816 calls)
 
     Parallel routines
 
     PWSCF        :      5.63s CPU      6.76s WALL

 
   This run was terminated on:  13:27:33   4Jun2024            

=------------------------------------------------------------------------------=
   JOB DONE.
=------------------------------------------------------------------------------=
