
     Program PROJWFC v.7.2 starts on  4Jun2024 at 13:27:36 

     This program is part of the open-source Quantum ESPRESSO suite
     for quantum simulation of materials; please cite
         "P. Giannozzi et al., J. Phys.:Condens. Matter 21 395502 (2009);
         "P. Giannozzi et al., J. Phys.:Condens. Matter 29 465901 (2017);
         "P. Giannozzi et al., J. Chem. Phys. 152 154105 (2020);
          URL http://www.quantum-espresso.org", 
     in publications or presentations arising from this work. More details at
     http://www.quantum-espresso.org/quote

     Parallel version (MPI), running on     2 processors

     MPI processes distributed on     1 nodes
     R & G space division:  proc/nbgrp/npool/nimage =       2
     183564 MiB available memory on the printing compute node when the environment starts
 

     Reading xml data from directory:

     ./output/opt.save/
     Message from routine  set_nelup_neldw :
     BEWARE: non-integer number of up and down electrons!

     IMPORTANT: XC functional enforced from input :
     Exchange-correlation= PBE
                           (   1   4   3   4   0   0   0)
     Any further DFT definition will be discarded
     Please, verify this is what you really want

 
     Parallelization info
     --------------------
     sticks:   dense  smooth     PW     G-vecs:    dense   smooth      PW
     Min         258     126     48                 3911     1369     322
     Max         259     127     49                 3912     1372     323
     Sum         517     253     97                 7823     2741     645
 
     Using Slab Decomposition
 

     Check: negative core charge=   -0.000001

     Gaussian broadening (read from input): ngauss,degauss=   0    0.010000


     Calling projwave .... 
     Subspace diagonalization in iterative solution of the eigenvalue problem:
     a serial algorithm will be used

 
  Problem Sizes 
  natomwfc =           13
  nbnd     =           14
  nkstot   =          816
  npwx     =          184
  nkb      =           18
 

     Atomic states used for projection
     (read from pseudopotential files):

     state #   1: atom   1 (Cu ), wfc  1 (l=0 m= 1)
     state #   2: atom   1 (Cu ), wfc  2 (l=1 m= 1)
     state #   3: atom   1 (Cu ), wfc  2 (l=1 m= 2)
     state #   4: atom   1 (Cu ), wfc  2 (l=1 m= 3)
     state #   5: atom   1 (Cu ), wfc  3 (l=2 m= 1)
     state #   6: atom   1 (Cu ), wfc  3 (l=2 m= 2)
     state #   7: atom   1 (Cu ), wfc  3 (l=2 m= 3)
     state #   8: atom   1 (Cu ), wfc  3 (l=2 m= 4)
     state #   9: atom   1 (Cu ), wfc  3 (l=2 m= 5)
     state #  10: atom   1 (Cu ), wfc  4 (l=0 m= 1)
     state #  11: atom   1 (Cu ), wfc  5 (l=1 m= 1)
     state #  12: atom   1 (Cu ), wfc  5 (l=1 m= 2)
     state #  13: atom   1 (Cu ), wfc  5 (l=1 m= 3)

 k =   0.0220678702  0.0220678702  0.0220678702
==== e(   1) =   -96.93515 eV ==== 
     psi = 0.980*[#   1]+0.016*[#  10]+0.002*[#  11]+0.002*[#  12]+0.002*[#  13]
          
    |psi|^2 = 1.000
==== e(   2) =   -54.27432 eV ==== 
     psi = 0.332*[#   2]+0.332*[#   3]+0.332*[#   4]+0.001*[#  11]+0.001*[#  12]
          +0.001*[#  13]
    |psi|^2 = 1.000
==== e(   3) =   -54.27353 eV ==== 
     psi = 0.332*[#   2]+0.332*[#   3]+0.332*[#   4]+0.001*[#  11]+0.001*[#  12]
          +0.001*[#  13]
    |psi|^2 = 1.000
==== e(   4) =   -54.27353 eV ==== 
     psi = 0.332*[#   2]+0.332*[#   3]+0.332*[#   4]+0.001*[#  11]+0.001*[#  12]
          +0.001*[#  13]
    |psi|^2 = 1.000
==== e(   5) =     6.32371 eV ==== 
     psi = 0.958*[#  10]+0.018*[#   1]+0.008*[#  11]+0.008*[#  12]+0.008*[#  13]
          
    |psi|^2 = 1.000
==== e(   6) =    12.61291 eV ==== 
     psi = 0.330*[#   6]+0.330*[#   7]+0.330*[#   9]
    |psi|^2 = 0.989
==== e(   7) =    12.62722 eV ==== 
     psi = 0.330*[#   6]+0.330*[#   7]+0.330*[#   9]
    |psi|^2 = 0.989
==== e(   8) =    12.62722 eV ==== 
     psi = 0.330*[#   6]+0.330*[#   7]+0.330*[#   9]
    |psi|^2 = 0.989
==== e(   9) =    13.41334 eV ==== 
     psi = 0.498*[#   5]+0.498*[#   8]
    |psi|^2 = 0.996
==== e(  10) =    13.41334 eV ==== 
     psi = 0.498*[#   5]+0.498*[#   8]
    |psi|^2 = 0.996
==== e(  11) =    37.68510 eV ==== 
     psi = 0.006*[#  11]+0.006*[#  12]+0.006*[#  13]
    |psi|^2 = 0.019
==== e(  12) =    39.60332 eV ==== 
     psi = 0.217*[#  11]+0.217*[#  12]+0.217*[#  13]+0.017*[#  10]+0.001*[#   1]
          
    |psi|^2 = 0.674
==== e(  13) =    40.12499 eV ==== 
     psi = 0.234*[#  11]+0.234*[#  12]+0.234*[#  13]+0.001*[#   2]+0.001*[#   3]
          +0.001*[#   4]
    |psi|^2 = 0.705
==== e(  14) =    40.12499 eV ==== 
     psi = 0.234*[#  11]+0.234*[#  12]+0.234*[#  13]+0.001*[#   2]+0.001*[#   3]
          +0.001*[#   4]
    |psi|^2 = 0.705

 k =   0.0662036106  0.0662036106 -0.0220678702
==== e(   1) =   -96.93455 eV ==== 
     psi = 0.968*[#   1]+0.009*[#  10]+0.008*[#  11]+0.008*[#  12]+0.008*[#  13]
          
    |psi|^2 = 1.000
==== e(   2) =   -54.27892 eV ==== 
     psi = 0.332*[#   2]+0.332*[#   3]+0.332*[#   4]
    |psi|^2 = 1.000
==== e(   3) =   -54.27489 eV ==== 
     psi = 0.332*[#   2]+0.332*[#   3]+0.332*[#   4]+0.001*[#  11]+0.001*[#  12]
          +0.001*[#  13]
    |psi|^2 = 1.000
==== e(   4) =   -54.27395 eV ==== 
     psi = 0.332*[#   2]+0.332*[#   3]+0.332*[#   4]+0.001*[#  11]+0.001*[#  12]
          +0.001*[#  13]
    |psi|^2 = 1.000
==== e(   5) =     6.50963 eV ==== 
     psi = 0.851*[#  10]+0.043*[#  11]+0.043*[#  12]+0.043*[#  13]+0.021*[#   1]
          
    |psi|^2 = 1.000
==== e(   6) =    12.57101 eV ==== 
     psi = 0.329*[#   6]+0.329*[#   7]+0.329*[#   9]
    |psi|^2 = 0.989
==== e(   7) =    12.65898 eV ==== 
     psi = 0.330*[#   6]+0.330*[#   7]+0.330*[#   9]
    |psi|^2 = 0.990
==== e(   8) =    12.66703 eV ==== 
     psi = 0.328*[#   6]+0.328*[#   7]+0.328*[#   9]+0.002*[#   5]+0.002*[#   8]
          
    |psi|^2 = 0.990
==== e(   9) =    13.38234 eV ==== 
     psi = 0.497*[#   5]+0.497*[#   8]
    |psi|^2 = 0.995
==== e(  10) =    13.41856 eV ==== 
     psi = 0.496*[#   5]+0.496*[#   8]+0.001*[#   6]+0.001*[#   7]+0.001*[#   9]
          
    |psi|^2 = 0.996
==== e(  11) =    36.50865 eV ==== 
     psi = 0.091*[#  11]+0.091*[#  12]+0.091*[#  13]+0.025*[#  10]+0.003*[#   6]
          +0.003*[#   7]+0.003*[#   9]+0.002*[#   1]
    |psi|^2 = 0.309
==== e(  12) =    38.09927 eV ==== 
     psi = 0.167*[#  11]+0.167*[#  12]+0.167*[#  13]+0.072*[#  10]+0.006*[#   1]
          +0.001*[#   6]+0.001*[#   7]+0.001*[#   9]
    |psi|^2 = 0.585
==== e(  13) =    39.35598 eV ==== 
     psi = 0.177*[#  11]+0.177*[#  12]+0.177*[#  13]
    |psi|^2 = 0.535
==== e(  14) =    40.38006 eV ==== 
     psi = 0.225*[#  11]+0.225*[#  12]+0.225*[#  13]+0.001*[#   2]+0.001*[#   3]
          +0.001*[#   4]
    |psi|^2 = 0.678

 k =   0.1103393511  0.1103393511 -0.0662036106
==== e(   1) =   -96.93312 eV ==== 
     psi = 0.954*[#   1]+0.015*[#  11]+0.015*[#  12]+0.015*[#  13]+0.002*[#  10]
          
    |psi|^2 = 1.000
==== e(   2) =   -54.29035 eV ==== 
     psi = 0.333*[#   2]+0.333*[#   3]+0.333*[#   4]+0.001*[#  10]
    |psi|^2 = 1.000
==== e(   3) =   -54.27700 eV ==== 
     psi = 0.332*[#   2]+0.332*[#   3]+0.332*[#   4]+0.001*[#  11]+0.001*[#  12]
          +0.001*[#  13]
    |psi|^2 = 1.000
==== e(   4) =   -54.27544 eV ==== 
     psi = 0.332*[#   2]+0.332*[#   3]+0.332*[#   4]+0.001*[#  11]+0.001*[#  12]
          +0.001*[#  13]
    |psi|^2 = 1.000
==== e(   5) =     6.96678 eV ==== 
     psi = 0.684*[#  10]+0.096*[#  11]+0.096*[#  12]+0.096*[#  13]+0.024*[#   1]
          
    |psi|^2 = 1.000
==== e(   6) =    12.48648 eV ==== 
     psi = 0.326*[#   6]+0.326*[#   7]+0.326*[#   9]+0.003*[#  11]+0.003*[#  12]
          +0.003*[#  13]
    |psi|^2 = 0.989
==== e(   7) =    12.72848 eV ==== 
     psi = 0.323*[#   6]+0.323*[#   7]+0.323*[#   9]+0.011*[#   5]+0.011*[#   8]
          
    |psi|^2 = 0.990
==== e(   8) =    12.73314 eV ==== 
     psi = 0.316*[#   6]+0.316*[#   7]+0.316*[#   9]+0.020*[#   5]+0.020*[#   8]
          +0.001*[#  11]+0.001*[#  12]+0.001*[#  13]
    |psi|^2 = 0.991
==== e(   9) =    13.34778 eV ==== 
     psi = 0.486*[#   5]+0.486*[#   8]+0.007*[#   6]+0.007*[#   7]+0.007*[#   9]
          
    |psi|^2 = 0.995
==== e(  10) =    13.42307 eV ==== 
     psi = 0.478*[#   5]+0.478*[#   8]+0.013*[#   6]+0.013*[#   7]+0.013*[#   9]
          
    |psi|^2 = 0.995
==== e(  11) =    33.49417 eV ==== 
     psi = 0.188*[#  10]+0.153*[#  11]+0.153*[#  12]+0.153*[#  13]+0.013*[#   1]
          +0.006*[#   6]+0.006*[#   7]+0.006*[#   9]
    |psi|^2 = 0.678
==== e(  12) =    37.26634 eV ==== 
     psi = 0.150*[#  11]+0.150*[#  12]+0.150*[#  13]+0.051*[#  10]+0.004*[#   1]
          +0.002*[#   6]+0.002*[#   7]+0.002*[#   9]
    |psi|^2 = 0.512
==== e(  13) =    39.08561 eV ==== 
     psi = 0.111*[#  11]+0.111*[#  12]+0.111*[#  13]+0.006*[#  10]
    |psi|^2 = 0.343
==== e(  14) =    39.89659 eV ==== 
     psi = 0.204*[#  11]+0.204*[#  12]+0.204*[#  13]+0.001*[#   6]+0.001*[#   7]
          +0.001*[#   9]
    |psi|^2 = 0.619

 k =   0.1544750915  0.1544750915 -0.1103393511
==== e(   1) =   -96.93110 eV ==== 
     psi = 0.950*[#   1]+0.017*[#  11]+0.017*[#  12]+0.017*[#  13]
    |psi|^2 = 1.000
==== e(   2) =   -54.30664 eV ==== 
     psi = 0.333*[#   2]+0.333*[#   3]+0.333*[#   4]+0.001*[#  10]
    |psi|^2 = 1.000
==== e(   3) =   -54.27973 eV ==== 
     psi = 0.332*[#   2]+0.332*[#   3]+0.332*[#   4]+0.001*[#  11]+0.001*[#  12]
          +0.001*[#  13]
    |psi|^2 = 1.000
==== e(   4) =   -54.27778 eV ==== 
     psi = 0.332*[#   2]+0.332*[#   3]+0.332*[#   4]+0.001*[#  11]+0.001*[#  12]
          +0.001*[#  13]
    |psi|^2 = 1.000
==== e(   5) =     7.67119 eV ==== 
     psi = 0.548*[#  10]+0.138*[#  11]+0.138*[#  12]+0.138*[#  13]+0.024*[#   1]
          +0.004*[#   6]+0.004*[#   7]+0.004*[#   9]
    |psi|^2 = 1.000
==== e(   6) =    12.39298 eV ==== 
     psi = 0.319*[#   6]+0.319*[#   7]+0.319*[#   9]+0.010*[#  11]+0.010*[#  12]
          +0.010*[#  13]+0.001*[#   1]
    |psi|^2 = 0.989
==== e(   7) =    12.77775 eV ==== 
     psi = 0.275*[#   6]+0.275*[#   7]+0.275*[#   9]+0.081*[#   5]+0.081*[#   8]
          +0.002*[#  11]+0.002*[#  12]+0.002*[#  13]
    |psi|^2 = 0.991
==== e(   8) =    12.78529 eV ==== 
     psi = 0.283*[#   6]+0.283*[#   7]+0.283*[#   9]+0.070*[#   5]+0.070*[#   8]
          
    |psi|^2 = 0.991
==== e(   9) =    13.35869 eV ==== 
     psi = 0.427*[#   5]+0.427*[#   8]+0.047*[#   6]+0.047*[#   7]+0.047*[#   9]
          
    |psi|^2 = 0.994
==== e(  10) =    13.47055 eV ==== 
     psi = 0.416*[#   5]+0.416*[#   8]+0.054*[#   6]+0.054*[#   7]+0.054*[#   9]
          
    |psi|^2 = 0.995
==== e(  11) =    30.30357 eV ==== 
     psi = 0.348*[#  10]+0.145*[#  11]+0.145*[#  12]+0.145*[#  13]+0.019*[#   1]
          +0.010*[#   6]+0.010*[#   7]+0.010*[#   9]
    |psi|^2 = 0.831
==== e(  12) =    36.66612 eV ==== 
     psi = 0.172*[#  11]+0.172*[#  12]+0.172*[#  13]+0.030*[#  10]+0.003*[#   6]
          +0.003*[#   7]+0.003*[#   9]+0.002*[#   1]
    |psi|^2 = 0.558
==== e(  13) =    38.72553 eV ==== 
     psi = 0.077*[#  11]+0.077*[#  12]+0.077*[#  13]+0.002*[#  10]
    |psi|^2 = 0.237
==== e(  14) =    39.31266 eV ==== 
     psi = 0.209*[#  11]+0.209*[#  12]+0.209*[#  13]+0.002*[#   6]+0.002*[#   7]
          +0.002*[#   9]
    |psi|^2 = 0.638

 k =   0.1986108319  0.1986108319 -0.1544750915
==== e(   1) =   -96.92877 eV ==== 
     psi = 0.957*[#   1]+0.014*[#  11]+0.014*[#  12]+0.014*[#  13]
    |psi|^2 = 1.000
==== e(   2) =   -54.32524 eV ==== 
     psi = 0.332*[#   2]+0.332*[#   3]+0.332*[#   4]
    |psi|^2 = 1.000
==== e(   3) =   -54.28269 eV ==== 
     psi = 0.332*[#   2]+0.332*[#   3]+0.332*[#   4]+0.001*[#  11]+0.001*[#  12]
          +0.001*[#  13]
    |psi|^2 = 1.000
==== e(   4) =   -54.28059 eV ==== 
     psi = 0.332*[#   2]+0.332*[#   3]+0.332*[#   4]+0.001*[#  11]+0.001*[#  12]
          +0.001*[#  13]
    |psi|^2 = 1.000
==== e(   5) =     8.56561 eV ==== 
     psi = 0.460*[#  10]+0.154*[#  11]+0.154*[#  12]+0.154*[#  13]+0.020*[#   1]
          +0.017*[#   6]+0.017*[#   7]+0.017*[#   9]
    |psi|^2 = 0.999
==== e(   6) =    12.35565 eV ==== 
     psi = 0.300*[#   6]+0.300*[#   7]+0.300*[#   9]+0.029*[#  11]+0.029*[#  12]
          +0.029*[#  13]+0.003*[#   1]
    |psi|^2 = 0.990
==== e(   7) =    12.76223 eV ==== 
     psi = 0.215*[#   6]+0.215*[#   7]+0.215*[#   9]+0.170*[#   5]+0.170*[#   8]
          +0.001*[#  11]+0.001*[#  12]+0.001*[#  13]
    |psi|^2 = 0.991
==== e(   8) =    12.77485 eV ==== 
     psi = 0.214*[#   6]+0.214*[#   7]+0.214*[#   9]+0.173*[#   5]+0.173*[#   8]
          
    |psi|^2 = 0.990
==== e(   9) =    13.46341 eV ==== 
     psi = 0.323*[#   5]+0.323*[#   8]+0.116*[#   6]+0.116*[#   7]+0.116*[#   9]
          
    |psi|^2 = 0.995
==== e(  10) =    13.59198 eV ==== 
     psi = 0.326*[#   5]+0.326*[#   8]+0.113*[#   6]+0.113*[#   7]+0.113*[#   9]
          +0.001*[#  11]+0.001*[#  12]+0.001*[#  13]
    |psi|^2 = 0.996
==== e(  11) =    27.24830 eV ==== 
     psi = 0.465*[#  10]+0.127*[#  11]+0.127*[#  12]+0.127*[#  13]+0.018*[#   1]
          +0.016*[#   6]+0.016*[#   7]+0.016*[#   9]
    |psi|^2 = 0.912
==== e(  12) =    36.20847 eV ==== 
     psi = 0.184*[#  11]+0.184*[#  12]+0.184*[#  13]+0.019*[#  10]+0.003*[#   6]
          +0.003*[#   7]+0.003*[#   9]
    |psi|^2 = 0.582
==== e(  13) =    38.19473 eV ==== 
     psi = 0.072*[#  11]+0.072*[#  12]+0.072*[#  13]
    |psi|^2 = 0.218
==== e(  14) =    38.79320 eV ==== 
     psi = 0.233*[#  11]+0.233*[#  12]+0.233*[#  13]+0.002*[#   6]+0.002*[#   7]
          +0.002*[#   9]
    |psi|^2 = 0.708

 k =   0.2427465724  0.2427465724 -0.1986108319
==== e(   1) =   -96.92649 eV ==== 
     psi = 0.970*[#   1]+0.010*[#  11]+0.010*[#  12]+0.010*[#  13]
    |psi|^2 = 1.000
==== e(   2) =   -54.34333 eV ==== 
     psi = 0.332*[#   2]+0.332*[#   3]+0.332*[#   4]+0.001*[#  11]+0.001*[#  12]
          +0.001*[#  13]
    |psi|^2 = 1.000
==== e(   3) =   -54.28542 eV ==== 
     psi = 0.332*[#   2]+0.332*[#   3]+0.332*[#   4]+0.001*[#  11]+0.001*[#  12]
          +0.001*[#  13]
    |psi|^2 = 1.000
==== e(   4) =   -54.28346 eV ==== 
     psi = 0.332*[#   2]+0.332*[#   3]+0.332*[#   4]+0.001*[#  11]+0.001*[#  12]
          +0.001*[#  13]
    |psi|^2 = 1.000
==== e(   5) =     9.50882 eV ==== 
     psi = 0.400*[#  10]+0.133*[#  11]+0.133*[#  12]+0.133*[#  13]+0.061*[#   6]
          +0.061*[#   7]+0.061*[#   9]+0.011*[#   1]+0.001*[#   2]+0.001*[#   3]
          +0.001*[#   4]
    |psi|^2 = 0.997
==== e(   6) =    12.50520 eV ==== 
     psi = 0.248*[#   6]+0.248*[#   7]+0.248*[#   9]+0.077*[#  11]+0.077*[#  12]
          +0.077*[#  13]+0.006*[#  10]+0.005*[#   1]+0.001*[#   5]+0.001*[#   8]
          
    |psi|^2 = 0.992
==== e(   7) =    12.70266 eV ==== 
     psi = 0.237*[#   5]+0.237*[#   8]+0.171*[#   6]+0.171*[#   7]+0.171*[#   9]
          +0.001*[#  11]+0.001*[#  12]+0.001*[#  13]
    |psi|^2 = 0.990
==== e(   8) =    12.71449 eV ==== 
     psi = 0.245*[#   5]+0.245*[#   8]+0.166*[#   6]+0.166*[#   7]+0.166*[#   9]
          
    |psi|^2 = 0.989
==== e(   9) =    13.63235 eV ==== 
     psi = 0.251*[#   5]+0.251*[#   8]+0.164*[#   6]+0.164*[#   7]+0.164*[#   9]
          
    |psi|^2 = 0.996
==== e(  10) =    13.76281 eV ==== 
     psi = 0.258*[#   5]+0.258*[#   8]+0.156*[#   6]+0.156*[#   7]+0.156*[#   9]
          +0.003*[#  11]+0.003*[#  12]+0.003*[#  13]+0.002*[#  10]
    |psi|^2 = 0.997
==== e(  11) =    24.40700 eV ==== 
     psi = 0.541*[#  10]+0.108*[#  11]+0.108*[#  12]+0.108*[#  13]+0.026*[#   6]
          +0.026*[#   7]+0.026*[#   9]+0.012*[#   1]
    |psi|^2 = 0.956
==== e(  12) =    35.91727 eV ==== 
     psi = 0.183*[#  11]+0.183*[#  12]+0.183*[#  13]+0.012*[#  10]+0.002*[#   6]
          +0.002*[#   7]+0.002*[#   9]
    |psi|^2 = 0.572
==== e(  13) =    37.60332 eV ==== 
     psi = 0.084*[#  11]+0.084*[#  12]+0.084*[#  13]+0.002*[#  10]
    |psi|^2 = 0.257
==== e(  14) =    38.30997 eV ==== 
     psi = 0.269*[#  11]+0.269*[#  12]+0.269*[#  13]+0.002*[#   6]+0.002*[#   7]
          +0.002*[#   9]+0.001*[#   2]+0.001*[#   3]+0.001*[#   4]
    |psi|^2 = 0.816

 k =   0.2868823128  0.2868823128 -0.2427465724
==== e(   1) =   -96.92462 eV ==== 
     psi = 0.985*[#   1]+0.005*[#  11]+0.005*[#  12]+0.005*[#  13]
    |psi|^2 = 1.000
==== e(   2) =   -54.35818 eV ==== 
     psi = 0.331*[#   2]+0.331*[#   3]+0.331*[#   4]+0.002*[#  11]+0.002*[#  12]
          +0.002*[#  13]
    |psi|^2 = 1.000
==== e(   3) =   -54.28752 eV ==== 
     psi = 0.332*[#   2]+0.332*[#   3]+0.332*[#   4]
    |psi|^2 = 1.000
==== e(   4) =   -54.28594 eV ==== 
     psi = 0.332*[#   2]+0.332*[#   3]+0.332*[#   4]+0.001*[#  11]+0.001*[#  12]
          +0.001*[#  13]
    |psi|^2 = 1.000
==== e(   5) =    10.22136 eV ==== 
     psi = 0.335*[#  10]+0.150*[#   6]+0.150*[#   7]+0.150*[#   9]+0.067*[#  11]
          +0.067*[#  12]+0.067*[#  13]+0.003*[#   1]
    |psi|^2 = 0.993
==== e(   6) =    12.63558 eV ==== 
     psi = 0.273*[#   5]+0.273*[#   8]+0.147*[#   6]+0.147*[#   7]+0.147*[#   9]
          
    |psi|^2 = 0.989
==== e(   7) =    12.64909 eV ==== 
     psi = 0.280*[#   5]+0.280*[#   8]+0.143*[#   6]+0.143*[#   7]+0.143*[#   9]
          
    |psi|^2 = 0.988
==== e(   8) =    13.04283 eV ==== 
     psi = 0.161*[#  11]+0.161*[#  12]+0.161*[#  13]+0.149*[#   6]+0.149*[#   7]
          +0.149*[#   9]+0.027*[#  10]+0.015*[#   5]+0.015*[#   8]+0.006*[#   1]
          +0.001*[#   2]+0.001*[#   3]+0.001*[#   4]
    |psi|^2 = 0.996
==== e(   9) =    13.80261 eV ==== 
     psi = 0.215*[#   5]+0.215*[#   8]+0.188*[#   6]+0.188*[#   7]+0.188*[#   9]
          
    |psi|^2 = 0.997
==== e(  10) =    13.95778 eV ==== 
     psi = 0.207*[#   5]+0.207*[#   8]+0.174*[#   6]+0.174*[#   7]+0.174*[#   9]
          +0.018*[#  11]+0.018*[#  12]+0.018*[#  13]+0.007*[#  10]
    |psi|^2 = 0.997
==== e(  11) =    21.86794 eV ==== 
     psi = 0.595*[#  10]+0.083*[#  11]+0.083*[#  12]+0.083*[#  13]+0.044*[#   6]
          +0.044*[#   7]+0.044*[#   9]+0.005*[#   1]
    |psi|^2 = 0.979
==== e(  12) =    35.80864 eV ==== 
     psi = 0.165*[#  11]+0.165*[#  12]+0.165*[#  13]+0.008*[#  10]+0.002*[#   6]
          +0.002*[#   7]+0.002*[#   9]
    |psi|^2 = 0.510
==== e(  13) =    37.09629 eV ==== 
     psi = 0.115*[#  11]+0.115*[#  12]+0.115*[#  13]+0.004*[#  10]
    |psi|^2 = 0.352
==== e(  14) =    37.78410 eV ==== 
     psi = 0.300*[#  11]+0.300*[#  12]+0.300*[#  13]+0.001*[#   2]+0.001*[#   3]
          +0.001*[#   4]
    |psi|^2 = 0.906

 k =   0.3310180532  0.3310180532 -0.2868823128
==== e(   1) =   -96.92345 eV ==== 
     psi = 0.996*[#   1]+0.001*[#  11]+0.001*[#  12]+0.001*[#  13]
    |psi|^2 = 1.000
==== e(   2) =   -54.36755 eV ==== 
     psi = 0.331*[#   2]+0.331*[#   3]+0.331*[#   4]+0.003*[#  11]+0.003*[#  12]
          +0.003*[#  13]
    |psi|^2 = 1.000
==== e(   3) =   -54.28868 eV ==== 
     psi = 0.332*[#   2]+0.332*[#   3]+0.332*[#   4]
    |psi|^2 = 1.000
==== e(   4) =   -54.28767 eV ==== 
     psi = 0.332*[#   2]+0.332*[#   3]+0.332*[#   4]+0.001*[#  11]+0.001*[#  12]
          +0.001*[#  13]
    |psi|^2 = 1.000
==== e(   5) =    10.54003 eV ==== 
     psi = 0.279*[#  10]+0.223*[#   6]+0.223*[#   7]+0.223*[#   9]+0.014*[#  11]
          +0.014*[#  12]+0.014*[#  13]
    |psi|^2 = 0.990
==== e(   6) =    12.58737 eV ==== 
     psi = 0.293*[#   5]+0.293*[#   8]+0.133*[#   6]+0.133*[#   7]+0.133*[#   9]
          
    |psi|^2 = 0.988
==== e(   7) =    12.60555 eV ==== 
     psi = 0.294*[#   5]+0.294*[#   8]+0.133*[#   6]+0.133*[#   7]+0.133*[#   9]
          
    |psi|^2 = 0.988
==== e(   8) =    13.69324 eV ==== 
     psi = 0.141*[#   6]+0.141*[#   7]+0.141*[#   9]+0.114*[#   5]+0.114*[#   8]
          +0.111*[#  11]+0.111*[#  12]+0.111*[#  13]+0.009*[#  10]
    |psi|^2 = 0.998
==== e(   9) =    13.92693 eV ==== 
     psi = 0.201*[#   5]+0.201*[#   8]+0.198*[#   6]+0.198*[#   7]+0.198*[#   9]
          
    |psi|^2 = 0.998
==== e(  10) =    14.36423 eV ==== 
     psi = 0.170*[#  11]+0.170*[#  12]+0.170*[#  13]+0.094*[#   6]+0.094*[#   7]
          +0.094*[#   9]+0.089*[#   5]+0.089*[#   8]+0.023*[#  10]+0.001*[#   1]
          +0.001*[#   2]+0.001*[#   3]+0.001*[#   4]
    |psi|^2 = 0.999
==== e(  11) =    19.86510 eV ==== 
     psi = 0.660*[#  10]+0.073*[#   6]+0.073*[#   7]+0.073*[#   9]+0.037*[#  11]
          +0.037*[#  12]+0.037*[#  13]
    |psi|^2 = 0.991
==== e(  12) =    35.87756 eV ==== 
     psi = 0.113*[#  11]+0.113*[#  12]+0.113*[#  13]+0.005*[#  10]
    |psi|^2 = 0.349
==== e(  13) =    36.78946 eV ==== 
     psi = 0.178*[#  11]+0.178*[#  12]+0.178*[#  13]+0.007*[#  10]
    |psi|^2 = 0.544
==== e(  14) =    37.22619 eV ==== 
     psi = 0.306*[#  11]+0.306*[#  12]+0.306*[#  13]
    |psi|^2 = 0.922

 k =  -0.3310180532 -0.3310180532  0.3751537937
==== e(   1) =   -96.92313 eV ==== 
     psi = 0.999*[#   1]
    |psi|^2 = 1.000
==== e(   2) =   -54.36998 eV ==== 
     psi = 0.330*[#   2]+0.330*[#   3]+0.330*[#   4]+0.003*[#  11]+0.003*[#  12]
          +0.003*[#  13]
    |psi|^2 = 1.000
==== e(   3) =   -54.28873 eV ==== 
     psi = 0.332*[#   2]+0.332*[#   3]+0.332*[#   4]
    |psi|^2 = 1.000
==== e(   4) =   -54.28837 eV ==== 
     psi = 0.332*[#   2]+0.332*[#   3]+0.332*[#   4]+0.001*[#  11]+0.001*[#  12]
          +0.001*[#  13]
    |psi|^2 = 1.000
==== e(   5) =    10.60130 eV ==== 
     psi = 0.265*[#  10]+0.239*[#   6]+0.239*[#   7]+0.239*[#   9]+0.002*[#  11]
          +0.002*[#  12]+0.002*[#  13]
    |psi|^2 = 0.989
==== e(   6) =    12.57227 eV ==== 
     psi = 0.299*[#   5]+0.299*[#   8]+0.129*[#   6]+0.129*[#   7]+0.129*[#   9]
          
    |psi|^2 = 0.987
==== e(   7) =    12.59600 eV ==== 
     psi = 0.295*[#   5]+0.295*[#   8]+0.132*[#   6]+0.132*[#   7]+0.132*[#   9]
          
    |psi|^2 = 0.988
==== e(   8) =    13.79813 eV ==== 
     psi = 0.170*[#   6]+0.170*[#   7]+0.170*[#   9]+0.152*[#   5]+0.152*[#   8]
          +0.060*[#  11]+0.060*[#  12]+0.060*[#  13]
    |psi|^2 = 0.998
==== e(   9) =    13.97614 eV ==== 
     psi = 0.200*[#   5]+0.200*[#   8]+0.199*[#   6]+0.199*[#   7]+0.199*[#   9]
          
    |psi|^2 = 0.998
==== e(  10) =    14.70470 eV ==== 
     psi = 0.267*[#  11]+0.267*[#  12]+0.267*[#  13]+0.044*[#   5]+0.044*[#   8]
          +0.034*[#   6]+0.034*[#   7]+0.034*[#   9]+0.002*[#   2]+0.002*[#   3]
          +0.002*[#   4]+0.002*[#  10]
    |psi|^2 = 0.999
==== e(  11) =    19.18697 eV ==== 
     psi = 0.706*[#  10]+0.091*[#   6]+0.091*[#   7]+0.091*[#   9]+0.004*[#  11]
          +0.004*[#  12]+0.004*[#  13]
    |psi|^2 = 0.993
==== e(  12) =    36.05507 eV ==== 
     psi = 0.027*[#  11]+0.027*[#  12]+0.027*[#  13]+0.001*[#  10]
    |psi|^2 = 0.086
==== e(  13) =    36.76238 eV ==== 
     psi = 0.297*[#  11]+0.297*[#  12]+0.297*[#  13]
    |psi|^2 = 0.897
==== e(  14) =    36.80186 eV ==== 
     psi = 0.272*[#  11]+0.272*[#  12]+0.272*[#  13]+0.011*[#  10]
    |psi|^2 = 0.830

 k =  -0.2868823128 -0.2868823128  0.3310180532
==== e(   1) =   -96.92375 eV ==== 
     psi = 0.993*[#   1]+0.002*[#  11]+0.002*[#  12]+0.002*[#  13]
    |psi|^2 = 1.000
==== e(   2) =   -54.36515 eV ==== 
     psi = 0.331*[#   2]+0.331*[#   3]+0.331*[#   4]+0.003*[#  11]+0.003*[#  12]
          +0.003*[#  13]
    |psi|^2 = 1.000
==== e(   3) =   -54.28796 eV ==== 
     psi = 0.332*[#   2]+0.332*[#   3]+0.332*[#   4]+0.001*[#  11]+0.001*[#  12]
          +0.001*[#  13]
    |psi|^2 = 1.000
==== e(   4) =   -54.28765 eV ==== 
     psi = 0.332*[#   2]+0.332*[#   3]+0.332*[#   4]+0.001*[#  11]+0.001*[#  12]
          +0.001*[#  13]
    |psi|^2 = 1.000
==== e(   5) =    10.47107 eV ==== 
     psi = 0.293*[#  10]+0.205*[#   6]+0.205*[#   7]+0.205*[#   9]+0.027*[#  11]
          +0.027*[#  12]+0.027*[#  13]
    |psi|^2 = 0.990
==== e(   6) =    12.59464 eV ==== 
     psi = 0.295*[#   5]+0.295*[#   8]+0.132*[#   6]+0.132*[#   7]+0.132*[#   9]
          
    |psi|^2 = 0.988
==== e(   7) =    12.62217 eV ==== 
     psi = 0.284*[#   5]+0.284*[#   8]+0.139*[#   6]+0.139*[#   7]+0.139*[#   9]
          
    |psi|^2 = 0.988
==== e(   8) =    13.51537 eV ==== 
     psi = 0.148*[#  11]+0.148*[#  12]+0.148*[#  13]+0.129*[#   6]+0.129*[#   7]
          +0.129*[#   9]+0.070*[#   5]+0.070*[#   8]+0.020*[#  10]+0.002*[#   1]
          +0.001*[#   2]+0.001*[#   3]+0.001*[#   4]
    |psi|^2 = 0.998
==== e(   9) =    13.94040 eV ==== 
     psi = 0.211*[#   5]+0.211*[#   8]+0.192*[#   6]+0.192*[#   7]+0.192*[#   9]
          
    |psi|^2 = 0.998
==== e(  10) =    14.14435 eV ==== 
     psi = 0.136*[#   6]+0.136*[#   7]+0.136*[#   9]+0.129*[#   5]+0.129*[#   8]
          +0.101*[#  11]+0.101*[#  12]+0.101*[#  13]+0.022*[#  10]+0.002*[#   1]
          
    |psi|^2 = 0.998
==== e(  11) =    20.44287 eV ==== 
     psi = 0.634*[#  10]+0.062*[#   6]+0.062*[#   7]+0.062*[#   9]+0.055*[#  11]
          +0.055*[#  12]+0.055*[#  13]+0.002*[#   1]
    |psi|^2 = 0.988
==== e(  12) =    36.25326 eV ==== 
 
    |psi|^2 = 0.005
==== e(  13) =    36.48920 eV ==== 
     psi = 0.286*[#  11]+0.286*[#  12]+0.286*[#  13]
    |psi|^2 = 0.864
==== e(  14) =    37.20796 eV ==== 
     psi = 0.300*[#  11]+0.300*[#  12]+0.300*[#  13]+0.013*[#  10]
    |psi|^2 = 0.918

 k =  -0.2427465724 -0.2427465724  0.2868823128
==== e(   1) =   -96.92518 eV ==== 
     psi = 0.980*[#   1]+0.007*[#  11]+0.007*[#  12]+0.007*[#  13]
    |psi|^2 = 1.000
==== e(   2) =   -54.35376 eV ==== 
     psi = 0.331*[#   2]+0.331*[#   3]+0.331*[#   4]+0.002*[#  11]+0.002*[#  12]
          +0.002*[#  13]
    |psi|^2 = 1.000
==== e(   3) =   -54.28648 eV ==== 
     psi = 0.332*[#   2]+0.332*[#   3]+0.332*[#   4]+0.001*[#  11]+0.001*[#  12]
          +0.001*[#  13]
    |psi|^2 = 1.000
==== e(   4) =   -54.28561 eV ==== 
     psi = 0.332*[#   2]+0.332*[#   3]+0.332*[#   4]+0.001*[#  11]+0.001*[#  12]
          +0.001*[#  13]
    |psi|^2 = 1.000
==== e(   5) =    10.02755 eV ==== 
     psi = 0.358*[#  10]+0.118*[#   6]+0.118*[#   7]+0.118*[#   9]+0.091*[#  11]
          +0.091*[#  12]+0.091*[#  13]+0.006*[#   1]
    |psi|^2 = 0.994
==== e(   6) =    12.64953 eV ==== 
     psi = 0.277*[#   5]+0.277*[#   8]+0.144*[#   6]+0.144*[#   7]+0.144*[#   9]
          
    |psi|^2 = 0.988
==== e(   7) =    12.67653 eV ==== 
     psi = 0.259*[#   5]+0.259*[#   8]+0.156*[#   6]+0.156*[#   7]+0.156*[#   9]
          
    |psi|^2 = 0.989
==== e(   8) =    12.81019 eV ==== 
     psi = 0.186*[#   6]+0.186*[#   7]+0.186*[#   9]+0.132*[#  11]+0.132*[#  12]
          +0.132*[#  13]+0.020*[#  10]+0.006*[#   1]+0.006*[#   5]+0.006*[#   8]
          
    |psi|^2 = 0.995
==== e(   9) =    13.81079 eV ==== 
     psi = 0.212*[#   5]+0.212*[#   8]+0.179*[#   6]+0.179*[#   7]+0.179*[#   9]
          +0.011*[#  11]+0.011*[#  12]+0.011*[#  13]+0.005*[#  10]
    |psi|^2 = 0.997
==== e(  10) =    13.83086 eV ==== 
     psi = 0.237*[#   5]+0.237*[#   8]+0.174*[#   6]+0.174*[#   7]+0.174*[#   9]
          
    |psi|^2 = 0.997
==== e(  11) =    22.67127 eV ==== 
     psi = 0.577*[#  10]+0.092*[#  11]+0.092*[#  12]+0.092*[#  13]+0.037*[#   6]
          +0.037*[#   7]+0.037*[#   9]+0.007*[#   1]
    |psi|^2 = 0.973
==== e(  12) =    36.43861 eV ==== 
     psi = 0.274*[#  11]+0.274*[#  12]+0.274*[#  13]+0.002*[#   6]+0.002*[#   7]
          +0.002*[#   9]
    |psi|^2 = 0.831
==== e(  13) =    36.51659 eV ==== 
     psi = 0.021*[#  11]+0.021*[#  12]+0.021*[#  13]+0.002*[#  10]
    |psi|^2 = 0.067
==== e(  14) =    37.88056 eV ==== 
     psi = 0.269*[#  11]+0.269*[#  12]+0.269*[#  13]+0.013*[#  10]
    |psi|^2 = 0.826

 k =  -0.1986108319 -0.1986108319  0.2427465724
==== e(   1) =   -96.92722 eV ==== 
     psi = 0.965*[#   1]+0.012*[#  11]+0.012*[#  12]+0.012*[#  13]
    |psi|^2 = 1.000
==== e(   2) =   -54.33754 eV ==== 
     psi = 0.332*[#   2]+0.332*[#   3]+0.332*[#   4]+0.001*[#  11]+0.001*[#  12]
          +0.001*[#  13]
    |psi|^2 = 1.000
==== e(   3) =   -54.28416 eV ==== 
     psi = 0.332*[#   2]+0.332*[#   3]+0.332*[#   4]+0.001*[#  11]+0.001*[#  12]
          +0.001*[#  13]
    |psi|^2 = 1.000
==== e(   4) =   -54.28292 eV ==== 
     psi = 0.332*[#   2]+0.332*[#   3]+0.332*[#   4]+0.001*[#  11]+0.001*[#  12]
          +0.001*[#  13]
    |psi|^2 = 1.000
==== e(   5) =     9.20369 eV ==== 
     psi = 0.419*[#  10]+0.146*[#  11]+0.146*[#  12]+0.146*[#  13]+0.041*[#   6]
          +0.041*[#   7]+0.041*[#   9]+0.014*[#   1]+0.001*[#   2]+0.001*[#   3]
          +0.001*[#   4]
    |psi|^2 = 0.998
==== e(   6) =    12.42010 eV ==== 
     psi = 0.271*[#   6]+0.271*[#   7]+0.271*[#   9]+0.056*[#  11]+0.056*[#  12]
          +0.056*[#  13]+0.005*[#   1]+0.002*[#  10]+0.001*[#   5]+0.001*[#   8]
          
    |psi|^2 = 0.991
==== e(   7) =    12.72103 eV ==== 
     psi = 0.232*[#   5]+0.232*[#   8]+0.175*[#   6]+0.175*[#   7]+0.175*[#   9]
          
    |psi|^2 = 0.989
==== e(   8) =    12.74103 eV ==== 
     psi = 0.212*[#   5]+0.212*[#   8]+0.188*[#   6]+0.188*[#   7]+0.188*[#   9]
          
    |psi|^2 = 0.990
==== e(   9) =    13.59948 eV ==== 
     psi = 0.262*[#   5]+0.262*[#   8]+0.154*[#   6]+0.154*[#   7]+0.154*[#   9]
          +0.003*[#  11]+0.003*[#  12]+0.003*[#  13]+0.001*[#  10]
    |psi|^2 = 0.996
==== e(  10) =    13.67886 eV ==== 
     psi = 0.285*[#   5]+0.285*[#   8]+0.142*[#   6]+0.142*[#   7]+0.142*[#   9]
          
    |psi|^2 = 0.996
==== e(  11) =    25.32564 eV ==== 
     psi = 0.519*[#  10]+0.114*[#  11]+0.114*[#  12]+0.114*[#  13]+0.022*[#   6]
          +0.022*[#   7]+0.022*[#   9]+0.014*[#   1]
    |psi|^2 = 0.944
==== e(  12) =    36.60890 eV ==== 
     psi = 0.262*[#  11]+0.262*[#  12]+0.262*[#  13]+0.003*[#   6]+0.003*[#   7]
          +0.003*[#   9]
    |psi|^2 = 0.798
==== e(  13) =    36.86773 eV ==== 
     psi = 0.041*[#  11]+0.041*[#  12]+0.041*[#  13]+0.007*[#  10]+0.001*[#   6]
          +0.001*[#   7]+0.001*[#   9]
    |psi|^2 = 0.135
==== e(  14) =    38.65125 eV ==== 
     psi = 0.222*[#  11]+0.222*[#  12]+0.222*[#  13]+0.010*[#  10]+0.001*[#   6]
          +0.001*[#   7]+0.001*[#   9]
    |psi|^2 = 0.681

 k =  -0.1544750915 -0.1544750915  0.1986108319
==== e(   1) =   -96.92956 eV ==== 
     psi = 0.953*[#   1]+0.016*[#  11]+0.016*[#  12]+0.016*[#  13]
    |psi|^2 = 1.000
==== e(   2) =   -54.31895 eV ==== 
     psi = 0.332*[#   2]+0.332*[#   3]+0.332*[#   4]+0.001*[#  10]
    |psi|^2 = 1.000
==== e(   3) =   -54.28135 eV ==== 
     psi = 0.332*[#   2]+0.332*[#   3]+0.332*[#   4]+0.001*[#  11]+0.001*[#  12]
          +0.001*[#  13]
    |psi|^2 = 1.000
==== e(   4) =   -54.27999 eV ==== 
     psi = 0.332*[#   2]+0.332*[#   3]+0.332*[#   4]+0.001*[#  11]+0.001*[#  12]
          +0.001*[#  13]
    |psi|^2 = 1.000
==== e(   5) =     8.25243 eV ==== 
     psi = 0.485*[#  10]+0.152*[#  11]+0.152*[#  12]+0.152*[#  13]+0.022*[#   1]
          +0.011*[#   6]+0.011*[#   7]+0.011*[#   9]
    |psi|^2 = 0.999
==== e(   6) =    12.35415 eV ==== 
     psi = 0.308*[#   6]+0.308*[#   7]+0.308*[#   9]+0.021*[#  11]+0.021*[#  12]
          +0.021*[#  13]+0.002*[#   1]
    |psi|^2 = 0.989
==== e(   7) =    12.77629 eV ==== 
     psi = 0.230*[#   6]+0.230*[#   7]+0.230*[#   9]+0.148*[#   5]+0.148*[#   8]
          
    |psi|^2 = 0.990
==== e(   8) =    12.78473 eV ==== 
     psi = 0.240*[#   6]+0.240*[#   7]+0.240*[#   9]+0.134*[#   5]+0.134*[#   8]
          +0.001*[#  11]+0.001*[#  12]+0.001*[#  13]
    |psi|^2 = 0.991
==== e(   9) =    13.43015 eV ==== 
     psi = 0.348*[#   5]+0.348*[#   8]+0.099*[#   6]+0.099*[#   7]+0.099*[#   9]
          
    |psi|^2 = 0.995
==== e(  10) =    13.53307 eV ==== 
     psi = 0.363*[#   5]+0.363*[#   8]+0.089*[#   6]+0.089*[#   7]+0.089*[#   9]
          
    |psi|^2 = 0.996
==== e(  11) =    28.24599 eV ==== 
     psi = 0.431*[#  10]+0.133*[#  11]+0.133*[#  12]+0.133*[#  13]+0.019*[#   1]
          +0.014*[#   6]+0.014*[#   7]+0.014*[#   9]
    |psi|^2 = 0.890
==== e(  12) =    36.98770 eV ==== 
     psi = 0.251*[#  11]+0.251*[#  12]+0.251*[#  13]+0.003*[#   6]+0.003*[#   7]
          +0.003*[#   9]
    |psi|^2 = 0.767
==== e(  13) =    37.27488 eV ==== 
     psi = 0.051*[#  11]+0.051*[#  12]+0.051*[#  13]+0.018*[#  10]+0.001*[#   6]
          +0.001*[#   7]+0.001*[#   9]
    |psi|^2 = 0.178
==== e(  14) =    39.37935 eV ==== 
     psi = 0.179*[#  11]+0.179*[#  12]+0.179*[#  13]+0.004*[#  10]+0.001*[#   6]
          +0.001*[#   7]+0.001*[#   9]
    |psi|^2 = 0.549

 k =  -0.1103393511 -0.1103393511  0.1544750915
==== e(   1) =   -96.93183 eV ==== 
     psi = 0.950*[#   1]+0.016*[#  11]+0.016*[#  12]+0.016*[#  13]
    |psi|^2 = 1.000
==== e(   2) =   -54.30080 eV ==== 
     psi = 0.333*[#   2]+0.333*[#   3]+0.333*[#   4]+0.001*[#  10]
    |psi|^2 = 1.000
==== e(   3) =   -54.27848 eV ==== 
     psi = 0.332*[#   2]+0.332*[#   3]+0.332*[#   4]+0.001*[#  11]+0.001*[#  12]
          +0.001*[#  13]
    |psi|^2 = 1.000
==== e(   4) =   -54.27727 eV ==== 
     psi = 0.332*[#   2]+0.332*[#   3]+0.332*[#   4]+0.001*[#  11]+0.001*[#  12]
          +0.001*[#  13]
    |psi|^2 = 1.000
==== e(   5) =     7.41141 eV ==== 
     psi = 0.588*[#  10]+0.126*[#  11]+0.126*[#  12]+0.126*[#  13]+0.024*[#   1]
          +0.003*[#   6]+0.003*[#   7]+0.003*[#   9]
    |psi|^2 = 1.000
==== e(   6) =    12.42015 eV ==== 
     psi = 0.322*[#   6]+0.322*[#   7]+0.322*[#   9]+0.007*[#  11]+0.007*[#  12]
          +0.007*[#  13]
    |psi|^2 = 0.989
==== e(   7) =    12.77026 eV ==== 
     psi = 0.297*[#   6]+0.297*[#   7]+0.297*[#   9]+0.049*[#   5]+0.049*[#   8]
          
    |psi|^2 = 0.991
==== e(   8) =    12.77288 eV ==== 
     psi = 0.296*[#   6]+0.296*[#   7]+0.296*[#   9]+0.049*[#   5]+0.049*[#   8]
          +0.001*[#  11]+0.001*[#  12]+0.001*[#  13]
    |psi|^2 = 0.991
==== e(   9) =    13.34729 eV ==== 
     psi = 0.448*[#   5]+0.448*[#   8]+0.032*[#   6]+0.032*[#   7]+0.032*[#   9]
          
    |psi|^2 = 0.994
==== e(  10) =    13.44508 eV ==== 
     psi = 0.448*[#   5]+0.448*[#   8]+0.033*[#   6]+0.033*[#   7]+0.033*[#   9]
          
    |psi|^2 = 0.995
==== e(  11) =    31.35745 eV ==== 
     psi = 0.299*[#  10]+0.150*[#  11]+0.150*[#  12]+0.150*[#  13]+0.018*[#   1]
          +0.008*[#   6]+0.008*[#   7]+0.008*[#   9]
    |psi|^2 = 0.791
==== e(  12) =    37.56359 eV ==== 
     psi = 0.241*[#  11]+0.241*[#  12]+0.241*[#  13]+0.003*[#   6]+0.003*[#   7]
          +0.003*[#   9]
    |psi|^2 = 0.735
==== e(  13) =    37.69353 eV ==== 
     psi = 0.051*[#  11]+0.051*[#  12]+0.051*[#  13]+0.037*[#  10]+0.002*[#   1]
          +0.001*[#   6]+0.001*[#   7]+0.001*[#   9]
    |psi|^2 = 0.197
==== e(  14) =    39.93603 eV ==== 
     psi = 0.167*[#  11]+0.167*[#  12]+0.167*[#  13]+0.001*[#   6]+0.001*[#   7]
          +0.001*[#   9]
    |psi|^2 = 0.507

 k =  -0.0662036106 -0.0662036106  0.1103393511
==== e(   1) =   -96.93368 eV ==== 
     psi = 0.958*[#   1]+0.013*[#  11]+0.013*[#  12]+0.013*[#  13]+0.004*[#  10]
          
    |psi|^2 = 1.000
==== e(   2) =   -54.28582 eV ==== 
     psi = 0.333*[#   2]+0.333*[#   3]+0.333*[#   4]+0.001*[#  10]
    |psi|^2 = 1.000
==== e(   3) =   -54.27597 eV ==== 
     psi = 0.332*[#   2]+0.332*[#   3]+0.332*[#   4]+0.001*[#  11]+0.001*[#  12]
          +0.001*[#  13]
    |psi|^2 = 1.000
==== e(   4) =   -54.27515 eV ==== 
     psi = 0.332*[#   2]+0.332*[#   3]+0.332*[#   4]+0.001*[#  11]+0.001*[#  12]
          +0.001*[#  13]
    |psi|^2 = 1.000
==== e(   5) =     6.78532 eV ==== 
     psi = 0.738*[#  10]+0.079*[#  11]+0.079*[#  12]+0.079*[#  13]+0.023*[#   1]
          
    |psi|^2 = 1.000
==== e(   6) =    12.51549 eV ==== 
     psi = 0.327*[#   6]+0.327*[#   7]+0.327*[#   9]+0.002*[#  11]+0.002*[#  12]
          +0.002*[#  13]
    |psi|^2 = 0.989
==== e(   7) =    12.70667 eV ==== 
     psi = 0.325*[#   6]+0.325*[#   7]+0.325*[#   9]+0.006*[#   5]+0.006*[#   8]
          
    |psi|^2 = 0.990
==== e(   8) =    12.71064 eV ==== 
     psi = 0.324*[#   6]+0.324*[#   7]+0.324*[#   9]+0.008*[#   5]+0.008*[#   8]
          
    |psi|^2 = 0.991
==== e(   9) =    13.35322 eV ==== 
     psi = 0.491*[#   5]+0.491*[#   8]+0.004*[#   6]+0.004*[#   7]+0.004*[#   9]
          
    |psi|^2 = 0.995
==== e(  10) =    13.42263 eV ==== 
     psi = 0.489*[#   5]+0.489*[#   8]+0.006*[#   6]+0.006*[#   7]+0.006*[#   9]
          
    |psi|^2 = 0.996
==== e(  11) =    34.56023 eV ==== 
     psi = 0.147*[#  11]+0.147*[#  12]+0.147*[#  13]+0.132*[#  10]+0.010*[#   1]
          +0.005*[#   6]+0.005*[#   7]+0.005*[#   9]
    |psi|^2 = 0.597
==== e(  12) =    38.09578 eV ==== 
     psi = 0.062*[#  11]+0.062*[#  12]+0.062*[#  13]+0.058*[#  10]+0.004*[#   1]
          
    |psi|^2 = 0.250
==== e(  13) =    38.32367 eV ==== 
     psi = 0.231*[#  11]+0.231*[#  12]+0.231*[#  13]+0.002*[#   6]+0.002*[#   7]
          +0.002*[#   9]
    |psi|^2 = 0.704
==== e(  14) =    40.21744 eV ==== 
     psi = 0.192*[#  11]+0.192*[#  12]+0.192*[#  13]+0.001*[#  10]
    |psi|^2 = 0.581

 k =  -0.0220678702 -0.0220678702  0.0662036106
==== e(   1) =   -96.93485 eV ==== 
     psi = 0.973*[#   1]+0.012*[#  10]+0.005*[#  11]+0.005*[#  12]+0.005*[#  13]
          
    |psi|^2 = 1.000
==== e(   2) =   -54.27636 eV ==== 
     psi = 0.332*[#   2]+0.332*[#   3]+0.332*[#   4]
    |psi|^2 = 1.000
==== e(   3) =   -54.27424 eV ==== 
     psi = 0.332*[#   2]+0.332*[#   3]+0.332*[#   4]+0.001*[#  11]+0.001*[#  12]
          +0.001*[#  13]
    |psi|^2 = 1.000
==== e(   4) =   -54.27400 eV ==== 
     psi = 0.332*[#   2]+0.332*[#   3]+0.332*[#   4]+0.001*[#  11]+0.001*[#  12]
          +0.001*[#  13]
    |psi|^2 = 1.000
==== e(   5) =     6.41689 eV ==== 
     psi = 0.900*[#  10]+0.027*[#  11]+0.027*[#  12]+0.027*[#  13]+0.019*[#   1]
          
    |psi|^2 = 1.000
==== e(   6) =    12.58735 eV ==== 
     psi = 0.329*[#   6]+0.329*[#   7]+0.329*[#   9]
    |psi|^2 = 0.989
==== e(   7) =    12.64718 eV ==== 
     psi = 0.330*[#   6]+0.330*[#   7]+0.330*[#   9]
    |psi|^2 = 0.990
==== e(   8) =    12.64858 eV ==== 
     psi = 0.329*[#   6]+0.329*[#   7]+0.329*[#   9]
    |psi|^2 = 0.990
==== e(   9) =    13.38874 eV ==== 
     psi = 0.498*[#   5]+0.498*[#   8]
    |psi|^2 = 0.995
==== e(  10) =    13.42375 eV ==== 
     psi = 0.498*[#   5]+0.498*[#   8]
    |psi|^2 = 0.996
==== e(  11) =    37.23926 eV ==== 
     psi = 0.033*[#  11]+0.033*[#  12]+0.033*[#  13]+0.004*[#  10]+0.001*[#   6]
          +0.001*[#   7]+0.001*[#   9]
    |psi|^2 = 0.107
==== e(  12) =    38.85944 eV ==== 
     psi = 0.183*[#  11]+0.183*[#  12]+0.183*[#  13]+0.040*[#  10]+0.003*[#   1]
          
    |psi|^2 = 0.599
==== e(  13) =    39.23202 eV ==== 
     psi = 0.226*[#  11]+0.226*[#  12]+0.226*[#  13]+0.001*[#   6]+0.001*[#   7]
          +0.001*[#   9]+0.001*[#   2]+0.001*[#   3]+0.001*[#   4]
    |psi|^2 = 0.685
==== e(  14) =    40.13614 eV ==== 
     psi = 0.220*[#  11]+0.220*[#  12]+0.220*[#  13]+0.014*[#  10]+0.001*[#   1]
          
    |psi|^2 = 0.679

 k =   0.1103393511  0.0220678702  0.0220678702
==== e(   1) =   -96.93425 eV ==== 
     psi = 0.964*[#   1]+0.010*[#  11]+0.010*[#  12]+0.010*[#  13]+0.007*[#  10]
          
    |psi|^2 = 1.000
==== e(   2) =   -54.27998 eV ==== 
     psi = 0.332*[#   2]+0.332*[#   3]+0.332*[#   4]+0.001*[#  10]
    |psi|^2 = 1.000
==== e(   3) =   -54.27563 eV ==== 
     psi = 0.332*[#   2]+0.332*[#   3]+0.332*[#   4]+0.001*[#  11]+0.001*[#  12]
          +0.001*[#  13]
    |psi|^2 = 1.000
==== e(   4) =   -54.27531 eV ==== 
     psi = 0.332*[#   2]+0.332*[#   3]+0.332*[#   4]+0.001*[#  11]+0.001*[#  12]
          +0.001*[#  13]
    |psi|^2 = 1.000
==== e(   5) =     6.60215 eV ==== 
     psi = 0.807*[#  10]+0.057*[#  11]+0.057*[#  12]+0.057*[#  13]+0.022*[#   1]
          
    |psi|^2 = 1.000
==== e(   6) =    12.53427 eV ==== 
     psi = 0.329*[#   6]+0.329*[#   7]+0.329*[#   9]
    |psi|^2 = 0.988
==== e(   7) =    12.68994 eV ==== 
     psi = 0.329*[#   6]+0.329*[#   7]+0.329*[#   9]
    |psi|^2 = 0.990
==== e(   8) =    12.69108 eV ==== 
     psi = 0.329*[#   6]+0.329*[#   7]+0.329*[#   9]
    |psi|^2 = 0.991
==== e(   9) =    13.34124 eV ==== 
     psi = 0.497*[#   5]+0.497*[#   8]
    |psi|^2 = 0.995
==== e(  10) =    13.44419 eV ==== 
     psi = 0.497*[#   5]+0.497*[#   8]
    |psi|^2 = 0.996
==== e(  11) =    36.54196 eV ==== 
     psi = 0.075*[#  11]+0.075*[#  12]+0.075*[#  13]+0.013*[#  10]+0.003*[#   6]
          +0.003*[#   7]+0.003*[#   9]+0.001*[#   1]
    |psi|^2 = 0.248
==== e(  12) =    38.01917 eV ==== 
     psi = 0.143*[#  11]+0.143*[#  12]+0.143*[#  13]+0.053*[#  10]+0.004*[#   1]
          +0.001*[#   6]+0.001*[#   7]+0.001*[#   9]
    |psi|^2 = 0.493
==== e(  13) =    38.11281 eV ==== 
     psi = 0.238*[#  11]+0.238*[#  12]+0.238*[#  13]+0.002*[#   6]+0.002*[#   7]
          +0.002*[#   9]+0.001*[#   2]+0.001*[#   3]+0.001*[#   4]
    |psi|^2 = 0.723
==== e(  14) =    39.64203 eV ==== 
     psi = 0.180*[#  11]+0.180*[#  12]+0.180*[#  13]+0.048*[#  10]+0.004*[#   1]
          
    |psi|^2 = 0.596

 k =   0.1544750915  0.0662036106 -0.0220678702
==== e(   1) =   -96.93311 eV ==== 
     psi = 0.953*[#   1]+0.015*[#  11]+0.015*[#  12]+0.015*[#  13]+0.002*[#  10]
          
    |psi|^2 = 1.000
==== e(   2) =   -54.28822 eV ==== 
     psi = 0.333*[#   2]+0.333*[#   3]+0.333*[#   4]+0.002*[#  10]
    |psi|^2 = 1.000
==== e(   3) =   -54.27833 eV ==== 
     psi = 0.332*[#   2]+0.332*[#   3]+0.332*[#   4]+0.001*[#  11]+0.001*[#  12]
          +0.001*[#  13]
    |psi|^2 = 1.000
==== e(   4) =   -54.27641 eV ==== 
     psi = 0.332*[#   2]+0.332*[#   3]+0.332*[#   4]+0.001*[#  11]+0.001*[#  12]
          +0.001*[#  13]
    |psi|^2 = 1.000
==== e(   5) =     6.96764 eV ==== 
     psi = 0.679*[#  10]+0.098*[#  11]+0.098*[#  12]+0.098*[#  13]+0.024*[#   1]
          
    |psi|^2 = 1.000
==== e(   6) =    12.45209 eV ==== 
     psi = 0.328*[#   6]+0.328*[#   7]+0.328*[#   9]+0.001*[#  11]+0.001*[#  12]
          +0.001*[#  13]
    |psi|^2 = 0.987
==== e(   7) =    12.75643 eV ==== 
     psi = 0.326*[#   6]+0.326*[#   7]+0.326*[#   9]+0.005*[#   5]+0.005*[#   8]
          +0.001*[#  11]+0.001*[#  12]+0.001*[#  13]
    |psi|^2 = 0.991
==== e(   8) =    12.75852 eV ==== 
     psi = 0.322*[#   6]+0.322*[#   7]+0.322*[#   9]+0.011*[#   5]+0.011*[#   8]
          +0.002*[#  11]+0.002*[#  12]+0.002*[#  13]
    |psi|^2 = 0.992
==== e(   9) =    13.28219 eV ==== 
     psi = 0.490*[#   5]+0.490*[#   8]+0.004*[#   6]+0.004*[#   7]+0.004*[#   9]
          
    |psi|^2 = 0.994
==== e(  10) =    13.46938 eV ==== 
     psi = 0.488*[#   5]+0.488*[#   8]+0.007*[#   6]+0.007*[#   7]+0.007*[#   9]
          
    |psi|^2 = 0.996
==== e(  11) =    34.66139 eV ==== 
     psi = 0.160*[#  11]+0.160*[#  12]+0.160*[#  13]+0.064*[#  10]+0.005*[#   6]
          +0.005*[#   7]+0.005*[#   9]+0.005*[#   1]
    |psi|^2 = 0.566
==== e(  12) =    36.10298 eV ==== 
     psi = 0.184*[#  11]+0.184*[#  12]+0.184*[#  13]+0.099*[#  10]+0.007*[#   1]
          +0.003*[#   6]+0.003*[#   7]+0.003*[#   9]
    |psi|^2 = 0.669
==== e(  13) =    38.22164 eV ==== 
     psi = 0.115*[#  11]+0.115*[#  12]+0.115*[#  13]+0.011*[#  10]+0.002*[#   6]
          +0.002*[#   7]+0.002*[#   9]
    |psi|^2 = 0.361
==== e(  14) =    39.88313 eV ==== 
     psi = 0.144*[#  11]+0.144*[#  12]+0.144*[#  13]+0.020*[#  10]+0.002*[#   1]
          
    |psi|^2 = 0.459

 k =   0.1986108319  0.1103393511 -0.0662036106
==== e(   1) =   -96.93130 eV ==== 
     psi = 0.948*[#   1]+0.017*[#  11]+0.017*[#  12]+0.017*[#  13]
    |psi|^2 = 1.000
==== e(   2) =   -54.30237 eV ==== 
     psi = 0.333*[#   2]+0.333*[#   3]+0.333*[#   4]+0.002*[#  10]
    |psi|^2 = 1.000
==== e(   3) =   -54.28140 eV ==== 
     psi = 0.332*[#   2]+0.332*[#   3]+0.332*[#   4]+0.001*[#  11]+0.001*[#  12]
          +0.001*[#  13]
    |psi|^2 = 1.000
==== e(   4) =   -54.27826 eV ==== 
     psi = 0.332*[#   2]+0.332*[#   3]+0.332*[#   4]+0.001*[#  11]+0.001*[#  12]
          +0.001*[#  13]
    |psi|^2 = 1.000
==== e(   5) =     7.58819 eV ==== 
     psi = 0.552*[#  10]+0.137*[#  11]+0.137*[#  12]+0.137*[#  13]+0.025*[#   1]
          +0.002*[#   6]+0.002*[#   7]+0.002*[#   9]+0.001*[#   5]+0.001*[#   8]
          
    |psi|^2 = 1.000
==== e(   6) =    12.35226 eV ==== 
     psi = 0.323*[#   6]+0.323*[#   7]+0.323*[#   9]+0.006*[#  11]+0.006*[#  12]
          +0.006*[#  13]
    |psi|^2 = 0.988
==== e(   7) =    12.80353 eV ==== 
     psi = 0.275*[#   6]+0.275*[#   7]+0.275*[#   9]+0.080*[#   5]+0.080*[#   8]
          +0.002*[#  11]+0.002*[#  12]+0.002*[#  13]
    |psi|^2 = 0.991
==== e(   8) =    12.83087 eV ==== 
     psi = 0.303*[#   6]+0.303*[#   7]+0.303*[#   9]+0.039*[#   5]+0.039*[#   8]
          +0.001*[#  11]+0.001*[#  12]+0.001*[#  13]
    |psi|^2 = 0.992
==== e(   9) =    13.26681 eV ==== 
     psi = 0.433*[#   5]+0.433*[#   8]+0.041*[#   6]+0.041*[#   7]+0.041*[#   9]
          +0.001*[#  10]+0.001*[#  11]+0.001*[#  12]+0.001*[#  13]
    |psi|^2 = 0.993
==== e(  10) =    13.52031 eV ==== 
     psi = 0.441*[#   5]+0.441*[#   8]+0.038*[#   6]+0.038*[#   7]+0.038*[#   9]
          
    |psi|^2 = 0.996
==== e(  11) =    31.49942 eV ==== 
     psi = 0.232*[#  10]+0.174*[#  11]+0.174*[#  12]+0.174*[#  13]+0.014*[#   1]
          +0.008*[#   6]+0.008*[#   7]+0.008*[#   9]
    |psi|^2 = 0.793
==== e(  12) =    35.32216 eV ==== 
     psi = 0.199*[#  11]+0.199*[#  12]+0.199*[#  13]+0.062*[#  10]+0.004*[#   1]
          +0.004*[#   6]+0.004*[#   7]+0.004*[#   9]
    |psi|^2 = 0.676
==== e(  13) =    37.78918 eV ==== 
     psi = 0.095*[#  11]+0.095*[#  12]+0.095*[#  13]+0.016*[#  10]+0.002*[#   6]
          +0.002*[#   7]+0.002*[#   9]
    |psi|^2 = 0.308
==== e(  14) =    40.88697 eV ==== 
     psi = 0.020*[#  11]+0.020*[#  12]+0.020*[#  13]+0.011*[#  10]+0.001*[#   5]
          +0.001*[#   8]
    |psi|^2 = 0.075

 k =   0.2427465724  0.1544750915 -0.1103393511
==== e(   1) =   -96.92908 eV ==== 
     psi = 0.952*[#   1]+0.016*[#  11]+0.016*[#  12]+0.016*[#  13]
    |psi|^2 = 1.000
==== e(   2) =   -54.31967 eV ==== 
     psi = 0.332*[#   2]+0.332*[#   3]+0.332*[#   4]+0.001*[#  10]
    |psi|^2 = 1.000
==== e(   3) =   -54.28459 eV ==== 
     psi = 0.332*[#   2]+0.332*[#   3]+0.332*[#   4]
    |psi|^2 = 1.000
==== e(   4) =   -54.28090 eV ==== 
     psi = 0.332*[#   2]+0.332*[#   3]+0.332*[#   4]+0.001*[#  11]+0.001*[#  12]
          +0.001*[#  13]
    |psi|^2 = 1.000
==== e(   5) =     8.42037 eV ==== 
     psi = 0.459*[#  10]+0.160*[#  11]+0.160*[#  12]+0.160*[#  13]+0.022*[#   1]
          +0.011*[#   6]+0.011*[#   7]+0.011*[#   9]+0.003*[#   5]+0.003*[#   8]
          
    |psi|^2 = 0.999
==== e(   6) =    12.27760 eV ==== 
     psi = 0.312*[#   6]+0.312*[#   7]+0.312*[#   9]+0.016*[#  11]+0.016*[#  12]
          +0.016*[#  13]+0.001*[#   1]+0.001*[#   5]+0.001*[#   8]
    |psi|^2 = 0.989
==== e(   7) =    12.77152 eV ==== 
     psi = 0.197*[#   6]+0.197*[#   7]+0.197*[#   9]+0.196*[#   5]+0.196*[#   8]
          +0.002*[#  11]+0.002*[#  12]+0.002*[#  13]
    |psi|^2 = 0.990
==== e(   8) =    12.84797 eV ==== 
     psi = 0.241*[#   6]+0.241*[#   7]+0.241*[#   9]+0.132*[#   5]+0.132*[#   8]
          +0.002*[#  11]+0.002*[#  12]+0.002*[#  13]
    |psi|^2 = 0.992
==== e(   9) =    13.37711 eV ==== 
     psi = 0.308*[#   5]+0.308*[#   8]+0.122*[#   6]+0.122*[#   7]+0.122*[#   9]
          +0.003*[#  11]+0.003*[#  12]+0.003*[#  13]+0.002*[#  10]
    |psi|^2 = 0.994
==== e(  10) =    13.63405 eV ==== 
     psi = 0.353*[#   5]+0.353*[#   8]+0.095*[#   6]+0.095*[#   7]+0.095*[#   9]
          +0.001*[#  11]+0.001*[#  12]+0.001*[#  13]+0.001*[#  10]
    |psi|^2 = 0.996
==== e(  11) =    28.39152 eV ==== 
     psi = 0.366*[#  10]+0.158*[#  11]+0.158*[#  12]+0.158*[#  13]+0.015*[#   1]
          +0.013*[#   6]+0.013*[#   7]+0.013*[#   9]
    |psi|^2 = 0.895
==== e(  12) =    34.78030 eV ==== 
     psi = 0.216*[#  11]+0.216*[#  12]+0.216*[#  13]+0.041*[#  10]+0.004*[#   6]
          +0.004*[#   7]+0.004*[#   9]+0.002*[#   1]
    |psi|^2 = 0.704
==== e(  13) =    37.29709 eV ==== 
     psi = 0.079*[#  11]+0.079*[#  12]+0.079*[#  13]+0.005*[#  10]+0.002*[#   6]
          +0.002*[#   7]+0.002*[#   9]
    |psi|^2 = 0.250
==== e(  14) =    39.67503 eV ==== 
     psi = 0.150*[#  11]+0.150*[#  12]+0.150*[#  13]+0.082*[#  10]+0.005*[#   1]
          +0.002*[#   5]+0.002*[#   8]
    |psi|^2 = 0.544

 k =   0.2868823128  0.1986108319 -0.1544750915
==== e(   1) =   -96.92681 eV ==== 
     psi = 0.964*[#   1]+0.012*[#  11]+0.012*[#  12]+0.012*[#  13]
    |psi|^2 = 1.000
==== e(   2) =   -54.33740 eV ==== 
     psi = 0.332*[#   2]+0.332*[#   3]+0.332*[#   4]+0.001*[#  11]+0.001*[#  12]
          +0.001*[#  13]
    |psi|^2 = 1.000
==== e(   3) =   -54.28752 eV ==== 
     psi = 0.332*[#   2]+0.332*[#   3]+0.332*[#   4]
    |psi|^2 = 1.000
==== e(   4) =   -54.28393 eV ==== 
     psi = 0.332*[#   2]+0.332*[#   3]+0.332*[#   4]+0.001*[#  11]+0.001*[#  12]
          +0.001*[#  13]
    |psi|^2 = 1.000
==== e(   5) =     9.35861 eV ==== 
     psi = 0.394*[#  10]+0.153*[#  11]+0.153*[#  12]+0.153*[#  13]+0.040*[#   6]
          +0.040*[#   7]+0.040*[#   9]+0.015*[#   1]+0.004*[#   5]+0.004*[#   8]
          +0.001*[#   2]+0.001*[#   3]+0.001*[#   4]
    |psi|^2 = 0.998
==== e(   6) =    12.31225 eV ==== 
     psi = 0.277*[#   6]+0.277*[#   7]+0.277*[#   9]+0.045*[#  11]+0.045*[#  12]
          +0.045*[#  13]+0.009*[#   5]+0.009*[#   8]+0.003*[#   1]+0.002*[#  10]
          
    |psi|^2 = 0.991
==== e(   7) =    12.68444 eV ==== 
     psi = 0.263*[#   5]+0.263*[#   8]+0.153*[#   6]+0.153*[#   7]+0.153*[#   9]
          +0.001*[#  11]+0.001*[#  12]+0.001*[#  13]
    |psi|^2 = 0.989
==== e(   8) =    12.80598 eV ==== 
     psi = 0.212*[#   5]+0.212*[#   8]+0.187*[#   6]+0.187*[#   7]+0.187*[#   9]
          +0.002*[#  11]+0.002*[#  12]+0.002*[#  13]
    |psi|^2 = 0.991
==== e(   9) =    13.59310 eV ==== 
     psi = 0.237*[#   5]+0.237*[#   8]+0.165*[#   6]+0.165*[#   7]+0.165*[#   9]
          +0.007*[#  11]+0.007*[#  12]+0.007*[#  13]+0.004*[#  10]
    |psi|^2 = 0.995
==== e(  10) =    13.81159 eV ==== 
     psi = 0.265*[#   5]+0.265*[#   8]+0.147*[#   6]+0.147*[#   7]+0.147*[#   9]
          +0.006*[#  11]+0.006*[#  12]+0.006*[#  13]+0.005*[#  10]
    |psi|^2 = 0.997
==== e(  11) =    25.46912 eV ==== 
     psi = 0.459*[#  10]+0.137*[#  11]+0.137*[#  12]+0.137*[#  13]+0.022*[#   6]
          +0.022*[#   7]+0.022*[#   9]+0.012*[#   1]
    |psi|^2 = 0.948
==== e(  12) =    34.45210 eV ==== 
     psi = 0.221*[#  11]+0.221*[#  12]+0.221*[#  13]+0.029*[#  10]+0.003*[#   6]
          +0.003*[#   7]+0.003*[#   9]+0.001*[#   1]+0.001*[#   5]+0.001*[#   8]
          
    |psi|^2 = 0.708
==== e(  13) =    36.78777 eV ==== 
     psi = 0.056*[#  11]+0.056*[#  12]+0.056*[#  13]+0.001*[#   5]+0.001*[#   6]
          +0.001*[#   7]+0.001*[#   8]+0.001*[#   9]
    |psi|^2 = 0.175
==== e(  14) =    38.22201 eV ==== 
     psi = 0.226*[#  11]+0.226*[#  12]+0.226*[#  13]+0.077*[#  10]+0.004*[#   1]
          +0.001*[#   5]+0.001*[#   8]
    |psi|^2 = 0.766

 k =   0.3310180532  0.2427465724 -0.1986108319
==== e(   1) =   -96.92483 eV ==== 
     psi = 0.978*[#   1]+0.007*[#  11]+0.007*[#  12]+0.007*[#  13]
    |psi|^2 = 1.000
==== e(   2) =   -54.35285 eV ==== 
     psi = 0.331*[#   2]+0.331*[#   3]+0.331*[#   4]+0.002*[#  11]+0.002*[#  12]
          +0.002*[#  13]
    |psi|^2 = 1.000
==== e(   3) =   -54.28986 eV ==== 
     psi = 0.333*[#   2]+0.333*[#   3]+0.333*[#   4]
    |psi|^2 = 1.000
==== e(   4) =   -54.28681 eV ==== 
     psi = 0.332*[#   2]+0.332*[#   3]+0.332*[#   4]
    |psi|^2 = 1.000
==== e(   5) =    10.16468 eV ==== 
     psi = 0.328*[#  10]+0.117*[#   6]+0.117*[#   7]+0.117*[#   9]+0.099*[#  11]
          +0.099*[#  12]+0.099*[#  13]+0.006*[#   1]+0.005*[#   5]+0.005*[#   8]
          
    |psi|^2 = 0.994
==== e(   6) =    12.56090 eV ==== 
     psi = 0.258*[#   5]+0.258*[#   8]+0.099*[#   6]+0.099*[#   7]+0.099*[#   9]
          +0.057*[#  11]+0.057*[#  12]+0.057*[#  13]+0.003*[#  10]+0.002*[#   1]
          
    |psi|^2 = 0.991
==== e(   7) =    12.63078 eV ==== 
     psi = 0.240*[#   6]+0.240*[#   7]+0.240*[#   9]+0.065*[#   5]+0.065*[#   8]
          +0.042*[#  11]+0.042*[#  12]+0.042*[#  13]+0.010*[#  10]+0.002*[#   1]
          
    |psi|^2 = 0.990
==== e(   8) =    12.74406 eV ==== 
     psi = 0.258*[#   5]+0.258*[#   8]+0.155*[#   6]+0.155*[#   7]+0.155*[#   9]
          +0.003*[#  11]+0.003*[#  12]+0.003*[#  13]
    |psi|^2 = 0.990
==== e(   9) =    13.81636 eV ==== 
     psi = 0.222*[#   5]+0.222*[#   8]+0.179*[#   6]+0.179*[#   7]+0.179*[#   9]
          +0.005*[#  11]+0.005*[#  12]+0.005*[#  13]+0.002*[#  10]
    |psi|^2 = 0.997
==== e(  10) =    14.09994 eV ==== 
     psi = 0.183*[#   5]+0.183*[#   8]+0.167*[#   6]+0.167*[#   7]+0.167*[#   9]
          +0.036*[#  11]+0.036*[#  12]+0.036*[#  13]+0.021*[#  10]+0.002*[#   1]
          
    |psi|^2 = 0.997
==== e(  11) =    22.80516 eV ==== 
     psi = 0.524*[#  10]+0.112*[#  11]+0.112*[#  12]+0.112*[#  13]+0.035*[#   6]
          +0.035*[#   7]+0.035*[#   9]+0.006*[#   1]
    |psi|^2 = 0.975
==== e(  12) =    34.35253 eV ==== 
     psi = 0.214*[#  11]+0.214*[#  12]+0.214*[#  13]+0.020*[#  10]+0.003*[#   6]
          +0.003*[#   7]+0.003*[#   9]+0.002*[#   5]+0.002*[#   8]
    |psi|^2 = 0.676
==== e(  13) =    36.12236 eV ==== 
     psi = 0.082*[#  11]+0.082*[#  12]+0.082*[#  13]+0.022*[#  10]+0.002*[#   5]
          +0.002*[#   8]
    |psi|^2 = 0.275
==== e(  14) =    37.25701 eV ==== 
     psi = 0.242*[#  11]+0.242*[#  12]+0.242*[#  13]+0.046*[#  10]+0.002*[#   1]
          +0.001*[#   6]+0.001*[#   7]+0.001*[#   9]
    |psi|^2 = 0.781

 k =   0.3751537937  0.2868823128 -0.2427465724
==== e(   1) =   -96.92343 eV ==== 
     psi = 0.991*[#   1]+0.003*[#  11]+0.003*[#  12]+0.003*[#  13]
    |psi|^2 = 1.000
==== e(   2) =   -54.36368 eV ==== 
     psi = 0.331*[#   2]+0.331*[#   3]+0.331*[#   4]+0.002*[#  11]+0.002*[#  12]
          +0.002*[#  13]
    |psi|^2 = 1.000
==== e(   3) =   -54.29147 eV ==== 
     psi = 0.333*[#   2]+0.333*[#   3]+0.333*[#   4]
    |psi|^2 = 1.000
==== e(   4) =   -54.28886 eV ==== 
     psi = 0.332*[#   2]+0.332*[#   3]+0.332*[#   4]
    |psi|^2 = 1.000
==== e(   5) =    10.59078 eV ==== 
     psi = 0.262*[#  10]+0.206*[#   6]+0.206*[#   7]+0.206*[#   9]+0.035*[#  11]
          +0.035*[#  12]+0.035*[#  13]+0.002*[#   5]+0.002*[#   8]+0.001*[#   1]
          
    |psi|^2 = 0.991
==== e(   6) =    12.52324 eV ==== 
     psi = 0.328*[#   5]+0.328*[#   8]+0.104*[#   6]+0.104*[#   7]+0.104*[#   9]
          +0.006*[#  11]+0.006*[#  12]+0.006*[#  13]
    |psi|^2 = 0.987
==== e(   7) =    12.68706 eV ==== 
     psi = 0.288*[#   5]+0.288*[#   8]+0.137*[#   6]+0.137*[#   7]+0.137*[#   9]
          
    |psi|^2 = 0.989
==== e(   8) =    13.08920 eV ==== 
     psi = 0.179*[#   6]+0.179*[#   7]+0.179*[#   9]+0.113*[#  11]+0.113*[#  12]
          +0.113*[#  13]+0.053*[#   5]+0.053*[#   8]+0.012*[#  10]+0.002*[#   1]
          
    |psi|^2 = 0.997
==== e(   9) =    13.94078 eV ==== 
     psi = 0.206*[#   5]+0.206*[#   8]+0.194*[#   6]+0.194*[#   7]+0.194*[#   9]
          +0.001*[#  11]+0.001*[#  12]+0.001*[#  13]
    |psi|^2 = 0.998
==== e(  10) =    14.69655 eV ==== 
     psi = 0.128*[#  11]+0.128*[#  12]+0.128*[#  13]+0.115*[#   6]+0.115*[#   7]
          +0.115*[#   9]+0.111*[#   5]+0.111*[#   8]+0.041*[#  10]+0.002*[#   1]
          +0.001*[#   2]+0.001*[#   3]+0.001*[#   4]
    |psi|^2 = 0.998
==== e(  11) =    20.54693 eV ==== 
     psi = 0.588*[#  10]+0.073*[#  11]+0.073*[#  12]+0.073*[#  13]+0.059*[#   6]
          +0.059*[#   7]+0.059*[#   9]+0.001*[#   1]
    |psi|^2 = 0.989
==== e(  12) =    34.46866 eV ==== 
     psi = 0.175*[#  11]+0.175*[#  12]+0.175*[#  13]+0.007*[#  10]+0.002*[#   5]
          +0.002*[#   8]+0.002*[#   6]+0.002*[#   7]+0.002*[#   9]
    |psi|^2 = 0.542
==== e(  13) =    35.30885 eV ==== 
     psi = 0.190*[#  11]+0.190*[#  12]+0.190*[#  13]+0.053*[#  10]+0.003*[#   5]
          +0.003*[#   8]+0.002*[#   1]
    |psi|^2 = 0.634
==== e(  14) =    36.88722 eV ==== 
     psi = 0.193*[#  11]+0.193*[#  12]+0.193*[#  13]+0.017*[#  10]
    |psi|^2 = 0.600

 k =  -0.2868823128 -0.3751537937  0.4192895341
==== e(   1) =   -96.92284 eV ==== 
     psi = 0.997*[#   1]
    |psi|^2 = 1.000
==== e(   2) =   -54.36826 eV ==== 
     psi = 0.331*[#   2]+0.331*[#   3]+0.331*[#   4]+0.003*[#  11]+0.003*[#  12]
          +0.003*[#  13]
    |psi|^2 = 1.000
==== e(   3) =   -54.29246 eV ==== 
     psi = 0.333*[#   2]+0.333*[#   3]+0.333*[#   4]
    |psi|^2 = 1.000
==== e(   4) =   -54.28945 eV ==== 
     psi = 0.332*[#   2]+0.332*[#   3]+0.332*[#   4]
    |psi|^2 = 1.000
==== e(   5) =    10.71352 eV ==== 
     psi = 0.241*[#   6]+0.241*[#   7]+0.241*[#   9]+0.234*[#  10]+0.011*[#  11]
          +0.011*[#  12]+0.011*[#  13]
    |psi|^2 = 0.990
==== e(   6) =    12.49917 eV ==== 
     psi = 0.326*[#   5]+0.326*[#   8]+0.107*[#   6]+0.107*[#   7]+0.107*[#   9]
          +0.005*[#  11]+0.005*[#  12]+0.005*[#  13]
    |psi|^2 = 0.987
==== e(   7) =    12.66008 eV ==== 
     psi = 0.300*[#   5]+0.300*[#   8]+0.129*[#   6]+0.129*[#   7]+0.129*[#   9]
          
    |psi|^2 = 0.989
==== e(   8) =    13.34364 eV ==== 
     psi = 0.175*[#   6]+0.175*[#   7]+0.175*[#   9]+0.094*[#   5]+0.094*[#   8]
          +0.094*[#  11]+0.094*[#  12]+0.094*[#  13]
    |psi|^2 = 0.998
==== e(   9) =    13.96832 eV ==== 
     psi = 0.203*[#   6]+0.203*[#   7]+0.203*[#   9]+0.195*[#   5]+0.195*[#   8]
          
    |psi|^2 = 0.998
==== e(  10) =    15.35576 eV ==== 
     psi = 0.230*[#  11]+0.230*[#  12]+0.230*[#  13]+0.074*[#   5]+0.074*[#   8]
          +0.051*[#   6]+0.051*[#   7]+0.051*[#   9]+0.002*[#  10]+0.002*[#   2]
          +0.002*[#   3]+0.002*[#   4]
    |psi|^2 = 0.999
==== e(  11) =    19.23789 eV ==== 
     psi = 0.672*[#  10]+0.089*[#   6]+0.089*[#   7]+0.089*[#   9]+0.018*[#  11]
          +0.018*[#  12]+0.018*[#  13]
    |psi|^2 = 0.994
==== e(  12) =    34.34757 eV ==== 
     psi = 0.135*[#  11]+0.135*[#  12]+0.135*[#  13]+0.017*[#  10]+0.003*[#   5]
          +0.003*[#   8]+0.001*[#   6]+0.001*[#   7]+0.001*[#   9]
    |psi|^2 = 0.433
==== e(  13) =    35.10673 eV ==== 
     psi = 0.259*[#  11]+0.259*[#  12]+0.259*[#  13]+0.050*[#  10]+0.002*[#   5]
          +0.002*[#   8]+0.002*[#   1]
    |psi|^2 = 0.836
==== e(  14) =    36.88189 eV ==== 
     psi = 0.172*[#  11]+0.172*[#  12]+0.172*[#  13]+0.006*[#  10]
    |psi|^2 = 0.524

 k =  -0.2427465724 -0.3310180532  0.3751537937
==== e(   1) =   -96.92314 eV ==== 
     psi = 0.994*[#   1]+0.002*[#  11]+0.002*[#  12]+0.002*[#  13]
    |psi|^2 = 1.000
==== e(   2) =   -54.36590 eV ==== 
     psi = 0.331*[#   2]+0.331*[#   3]+0.331*[#   4]+0.003*[#  11]+0.003*[#  12]
          +0.003*[#  13]
    |psi|^2 = 1.000
==== e(   3) =   -54.29263 eV ==== 
     psi = 0.333*[#   2]+0.333*[#   3]+0.333*[#   4]
    |psi|^2 = 1.000
==== e(   4) =   -54.28851 eV ==== 
     psi = 0.332*[#   2]+0.332*[#   3]+0.332*[#   4]
    |psi|^2 = 1.000
==== e(   5) =    10.65689 eV ==== 
     psi = 0.248*[#  10]+0.224*[#   6]+0.224*[#   7]+0.224*[#   9]+0.022*[#  11]
          +0.022*[#  12]+0.022*[#  13]
    |psi|^2 = 0.991
==== e(   6) =    12.51823 eV ==== 
     psi = 0.318*[#   5]+0.318*[#   8]+0.112*[#   6]+0.112*[#   7]+0.112*[#   9]
          +0.005*[#  11]+0.005*[#  12]+0.005*[#  13]
    |psi|^2 = 0.987
==== e(   7) =    12.66814 eV ==== 
     psi = 0.301*[#   5]+0.301*[#   8]+0.129*[#   6]+0.129*[#   7]+0.129*[#   9]
          
    |psi|^2 = 0.989
==== e(   8) =    13.23741 eV ==== 
     psi = 0.167*[#   6]+0.167*[#   7]+0.167*[#   9]+0.110*[#  11]+0.110*[#  12]
          +0.110*[#  13]+0.080*[#   5]+0.080*[#   8]+0.006*[#  10]
    |psi|^2 = 0.998
==== e(   9) =    13.91129 eV ==== 
     psi = 0.203*[#   6]+0.203*[#   7]+0.203*[#   9]+0.194*[#   5]+0.194*[#   8]
          
    |psi|^2 = 0.997
==== e(  10) =    14.98119 eV ==== 
     psi = 0.165*[#  11]+0.165*[#  12]+0.165*[#  13]+0.096*[#   5]+0.096*[#   8]
          +0.090*[#   6]+0.090*[#   7]+0.090*[#   9]+0.036*[#  10]+0.001*[#   1]
          +0.001*[#   2]+0.001*[#   3]+0.001*[#   4]
    |psi|^2 = 0.999
==== e(  11) =    19.95339 eV ==== 
     psi = 0.616*[#  10]+0.070*[#   6]+0.070*[#   7]+0.070*[#   9]+0.054*[#  11]
          +0.054*[#  12]+0.054*[#  13]
    |psi|^2 = 0.991
==== e(  12) =    33.89163 eV ==== 
     psi = 0.186*[#  11]+0.186*[#  12]+0.186*[#  13]+0.036*[#  10]+0.003*[#   5]
          +0.003*[#   8]+0.002*[#   6]+0.002*[#   7]+0.002*[#   9]+0.001*[#   1]
          
    |psi|^2 = 0.608
==== e(  13) =    35.73040 eV ==== 
     psi = 0.195*[#  11]+0.195*[#  12]+0.195*[#  13]+0.036*[#  10]+0.002*[#   5]
          +0.002*[#   8]+0.001*[#   1]
    |psi|^2 = 0.630
==== e(  14) =    37.16170 eV ==== 
     psi = 0.183*[#  11]+0.183*[#  12]+0.183*[#  13]
    |psi|^2 = 0.552

 k =  -0.1986108319 -0.2868823128  0.3310180532
==== e(   1) =   -96.92429 eV ==== 
     psi = 0.983*[#   1]+0.005*[#  11]+0.005*[#  12]+0.005*[#  13]
    |psi|^2 = 1.000
==== e(   2) =   -54.35697 eV ==== 
     psi = 0.331*[#   2]+0.331*[#   3]+0.331*[#   4]+0.002*[#  11]+0.002*[#  12]
          +0.002*[#  13]
    |psi|^2 = 1.000
==== e(   3) =   -54.29170 eV ==== 
     psi = 0.333*[#   2]+0.333*[#   3]+0.333*[#   4]
    |psi|^2 = 1.000
==== e(   4) =   -54.28643 eV ==== 
     psi = 0.332*[#   2]+0.332*[#   3]+0.332*[#   4]+0.001*[#  11]+0.001*[#  12]
          +0.001*[#  13]
    |psi|^2 = 1.000
==== e(   5) =    10.35373 eV ==== 
     psi = 0.304*[#  10]+0.151*[#   6]+0.151*[#   7]+0.151*[#   9]+0.075*[#  11]
          +0.075*[#  12]+0.075*[#  13]+0.004*[#   1]+0.003*[#   5]+0.003*[#   8]
          
    |psi|^2 = 0.993
==== e(   6) =    12.57582 eV ==== 
     psi = 0.307*[#   5]+0.307*[#   8]+0.119*[#   6]+0.119*[#   7]+0.119*[#   9]
          +0.006*[#  11]+0.006*[#  12]+0.006*[#  13]
    |psi|^2 = 0.988
==== e(   7) =    12.70719 eV ==== 
     psi = 0.275*[#   5]+0.275*[#   8]+0.141*[#   6]+0.141*[#   7]+0.141*[#   9]
          +0.005*[#  11]+0.005*[#  12]+0.005*[#  13]
    |psi|^2 = 0.989
==== e(   8) =    12.79159 eV ==== 
     psi = 0.189*[#   6]+0.189*[#   7]+0.189*[#   9]+0.111*[#  11]+0.111*[#  12]
          +0.111*[#  13]+0.035*[#   5]+0.035*[#   8]+0.016*[#  10]+0.004*[#   1]
          
    |psi|^2 = 0.995
==== e(   9) =    13.77271 eV ==== 
     psi = 0.203*[#   5]+0.203*[#   8]+0.194*[#   6]+0.194*[#   7]+0.194*[#   9]
          +0.002*[#  11]+0.002*[#  12]+0.002*[#  13]
    |psi|^2 = 0.997
==== e(  10) =    14.32375 eV ==== 
     psi = 0.166*[#   5]+0.166*[#   8]+0.156*[#   6]+0.156*[#   7]+0.156*[#   9]
          +0.055*[#  11]+0.055*[#  12]+0.055*[#  13]+0.031*[#  10]+0.002*[#   1]
          
    |psi|^2 = 0.998
==== e(  11) =    21.99755 eV ==== 
     psi = 0.544*[#  10]+0.102*[#  11]+0.102*[#  12]+0.102*[#  13]+0.042*[#   6]
          +0.042*[#   7]+0.042*[#   9]+0.004*[#   1]+0.001*[#   5]+0.001*[#   8]
          
    |psi|^2 = 0.981
==== e(  12) =    33.64401 eV ==== 
     psi = 0.206*[#  11]+0.206*[#  12]+0.206*[#  13]+0.046*[#  10]+0.003*[#   6]
          +0.003*[#   7]+0.003*[#   9]+0.002*[#   5]+0.002*[#   8]+0.002*[#   1]
          
    |psi|^2 = 0.680
==== e(  13) =    36.60467 eV ==== 
     psi = 0.123*[#  11]+0.123*[#  12]+0.123*[#  13]+0.032*[#  10]+0.002*[#   5]
          +0.002*[#   8]+0.001*[#   1]
    |psi|^2 = 0.408
==== e(  14) =    37.73215 eV ==== 
     psi = 0.225*[#  11]+0.225*[#  12]+0.225*[#  13]+0.001*[#  10]
    |psi|^2 = 0.679

 k =  -0.1544750915 -0.2427465724  0.2868823128
==== e(   1) =   -96.92611 eV ==== 
     psi = 0.969*[#   1]+0.010*[#  11]+0.010*[#  12]+0.010*[#  13]
    |psi|^2 = 1.000
==== e(   2) =   -54.34282 eV ==== 
     psi = 0.332*[#   2]+0.332*[#   3]+0.332*[#   4]+0.001*[#  11]+0.001*[#  12]
          +0.001*[#  13]
    |psi|^2 = 1.000
==== e(   3) =   -54.28968 eV ==== 
     psi = 0.333*[#   2]+0.333*[#   3]+0.333*[#   4]
    |psi|^2 = 1.000
==== e(   4) =   -54.28365 eV ==== 
     psi = 0.332*[#   2]+0.332*[#   3]+0.332*[#   4]+0.001*[#  11]+0.001*[#  12]
          +0.001*[#  13]
    |psi|^2 = 1.000
==== e(   5) =     9.65976 eV ==== 
     psi = 0.374*[#  10]+0.140*[#  11]+0.140*[#  12]+0.140*[#  13]+0.060*[#   6]
          +0.060*[#   7]+0.060*[#   9]+0.012*[#   1]+0.004*[#   5]+0.004*[#   8]
          +0.001*[#   2]+0.001*[#   3]+0.001*[#   4]
    |psi|^2 = 0.997
==== e(   6) =    12.39006 eV ==== 
     psi = 0.259*[#   6]+0.259*[#   7]+0.259*[#   9]+0.063*[#  11]+0.063*[#  12]
          +0.063*[#  13]+0.010*[#   5]+0.010*[#   8]+0.004*[#  10]+0.004*[#   1]
          
    |psi|^2 = 0.992
==== e(   7) =    12.66014 eV ==== 
     psi = 0.262*[#   5]+0.262*[#   8]+0.152*[#   6]+0.152*[#   7]+0.152*[#   9]
          +0.003*[#  11]+0.003*[#  12]+0.003*[#  13]
    |psi|^2 = 0.989
==== e(   8) =    12.77671 eV ==== 
     psi = 0.253*[#   5]+0.253*[#   8]+0.160*[#   6]+0.160*[#   7]+0.160*[#   9]
          
    |psi|^2 = 0.990
==== e(   9) =    13.57540 eV ==== 
     psi = 0.230*[#   5]+0.230*[#   8]+0.176*[#   6]+0.176*[#   7]+0.176*[#   9]
          +0.002*[#  11]+0.002*[#  12]+0.002*[#  13]
    |psi|^2 = 0.995
==== e(  10) =    13.96635 eV ==== 
     psi = 0.232*[#   5]+0.232*[#   8]+0.159*[#   6]+0.159*[#   7]+0.159*[#   9]
          +0.014*[#  11]+0.014*[#  12]+0.014*[#  13]+0.011*[#  10]+0.001*[#   1]
          
    |psi|^2 = 0.997
==== e(  11) =    24.55084 eV ==== 
     psi = 0.484*[#  10]+0.129*[#  11]+0.129*[#  12]+0.129*[#  13]+0.026*[#   6]
          +0.026*[#   7]+0.026*[#   9]+0.010*[#   1]
    |psi|^2 = 0.959
==== e(  12) =    33.64331 eV ==== 
     psi = 0.212*[#  11]+0.212*[#  12]+0.212*[#  13]+0.057*[#  10]+0.004*[#   6]
          +0.004*[#   7]+0.004*[#   9]+0.002*[#   1]+0.001*[#   5]+0.001*[#   8]
          
    |psi|^2 = 0.712
==== e(  13) =    37.54847 eV ==== 
     psi = 0.058*[#  11]+0.058*[#  12]+0.058*[#  13]+0.019*[#  10]+0.001*[#   5]
          +0.001*[#   8]
    |psi|^2 = 0.198
==== e(  14) =    38.63170 eV ==== 
     psi = 0.263*[#  11]+0.263*[#  12]+0.263*[#  13]+0.014*[#  10]
    |psi|^2 = 0.809

 k =  -0.1103393511 -0.1986108319  0.2427465724
==== e(   1) =   -96.92833 eV ==== 
     psi = 0.956*[#   1]+0.015*[#  11]+0.015*[#  12]+0.015*[#  13]
    |psi|^2 = 1.000
==== e(   2) =   -54.32564 eV ==== 
     psi = 0.332*[#   2]+0.332*[#   3]+0.332*[#   4]+0.001*[#  10]
    |psi|^2 = 1.000
==== e(   3) =   -54.28678 eV ==== 
     psi = 0.333*[#   2]+0.333*[#   3]+0.333*[#   4]
    |psi|^2 = 1.000
==== e(   4) =   -54.28066 eV ==== 
     psi = 0.332*[#   2]+0.332*[#   3]+0.332*[#   4]+0.001*[#  11]+0.001*[#  12]
          +0.001*[#  13]
    |psi|^2 = 1.000
==== e(   5) =     8.73041 eV ==== 
     psi = 0.436*[#  10]+0.162*[#  11]+0.162*[#  12]+0.162*[#  13]+0.020*[#   1]
          +0.017*[#   6]+0.017*[#   7]+0.017*[#   9]+0.002*[#   5]+0.002*[#   8]
          
    |psi|^2 = 0.999
==== e(   6) =    12.28465 eV ==== 
     psi = 0.305*[#   6]+0.305*[#   7]+0.305*[#   9]+0.024*[#  11]+0.024*[#  12]
          +0.024*[#  13]+0.002*[#   1]+0.001*[#   5]+0.001*[#   8]
    |psi|^2 = 0.990
==== e(   7) =    12.74364 eV ==== 
     psi = 0.205*[#   5]+0.205*[#   8]+0.190*[#   6]+0.190*[#   7]+0.190*[#   9]
          +0.003*[#  11]+0.003*[#  12]+0.003*[#  13]
    |psi|^2 = 0.990
==== e(   8) =    12.83792 eV ==== 
     psi = 0.211*[#   6]+0.211*[#   7]+0.211*[#   9]+0.178*[#   5]+0.178*[#   8]
          
    |psi|^2 = 0.991
==== e(   9) =    13.38113 eV ==== 
     psi = 0.302*[#   5]+0.302*[#   8]+0.128*[#   6]+0.128*[#   7]+0.128*[#   9]
          +0.001*[#  11]+0.001*[#  12]+0.001*[#  13]
    |psi|^2 = 0.994
==== e(  10) =    13.73366 eV ==== 
     psi = 0.303*[#   5]+0.303*[#   8]+0.124*[#   6]+0.124*[#   7]+0.124*[#   9]
          +0.004*[#  11]+0.004*[#  12]+0.004*[#  13]+0.004*[#  10]
    |psi|^2 = 0.996
==== e(  11) =    27.39618 eV ==== 
     psi = 0.402*[#  10]+0.150*[#  11]+0.150*[#  12]+0.150*[#  13]+0.016*[#   6]
          +0.016*[#   7]+0.016*[#   9]+0.015*[#   1]
    |psi|^2 = 0.916
==== e(  12) =    33.87870 eV ==== 
     psi = 0.208*[#  11]+0.208*[#  12]+0.208*[#  13]+0.074*[#  10]+0.004*[#   6]
          +0.004*[#   7]+0.004*[#   9]+0.004*[#   1]
    |psi|^2 = 0.718
==== e(  13) =    38.38667 eV ==== 
     psi = 0.056*[#  11]+0.056*[#  12]+0.056*[#  13]+0.004*[#  10]
    |psi|^2 = 0.175
==== e(  14) =    39.86611 eV ==== 
     psi = 0.229*[#  11]+0.229*[#  12]+0.229*[#  13]+0.034*[#  10]+0.002*[#   1]
          
    |psi|^2 = 0.730

 k =  -0.0662036106 -0.1544750915  0.1986108319
==== e(   1) =   -96.93060 eV ==== 
     psi = 0.949*[#   1]+0.017*[#  11]+0.017*[#  12]+0.017*[#  13]
    |psi|^2 = 1.000
==== e(   2) =   -54.30808 eV ==== 
     psi = 0.333*[#   2]+0.333*[#   3]+0.333*[#   4]+0.001*[#  10]
    |psi|^2 = 1.000
==== e(   3) =   -54.28336 eV ==== 
     psi = 0.332*[#   2]+0.332*[#   3]+0.332*[#   4]
    |psi|^2 = 1.000
==== e(   4) =   -54.27791 eV ==== 
     psi = 0.332*[#   2]+0.332*[#   3]+0.332*[#   4]+0.001*[#  11]+0.001*[#  12]
          +0.001*[#  13]
    |psi|^2 = 1.000
==== e(   5) =     7.84546 eV ==== 
     psi = 0.518*[#  10]+0.147*[#  11]+0.147*[#  12]+0.147*[#  13]+0.024*[#   1]
          +0.004*[#   6]+0.004*[#   7]+0.004*[#   9]+0.001*[#   5]+0.001*[#   8]
          
    |psi|^2 = 1.000
==== e(   6) =    12.33515 eV ==== 
     psi = 0.321*[#   6]+0.321*[#   7]+0.321*[#   9]+0.009*[#  11]+0.009*[#  12]
          +0.009*[#  13]
    |psi|^2 = 0.989
==== e(   7) =    12.78881 eV ==== 
     psi = 0.251*[#   6]+0.251*[#   7]+0.251*[#   9]+0.115*[#   5]+0.115*[#   8]
          +0.003*[#  11]+0.003*[#  12]+0.003*[#  13]
    |psi|^2 = 0.991
==== e(   8) =    12.84419 eV ==== 
     psi = 0.292*[#   6]+0.292*[#   7]+0.292*[#   9]+0.056*[#   5]+0.056*[#   8]
          
    |psi|^2 = 0.991
==== e(   9) =    13.27011 eV ==== 
     psi = 0.430*[#   5]+0.430*[#   8]+0.044*[#   6]+0.044*[#   7]+0.044*[#   9]
          
    |psi|^2 = 0.993
==== e(  10) =    13.56782 eV ==== 
     psi = 0.391*[#   5]+0.391*[#   8]+0.069*[#   6]+0.069*[#   7]+0.069*[#   9]
          +0.002*[#  10]+0.001*[#  11]+0.001*[#  12]+0.001*[#  13]
    |psi|^2 = 0.996
==== e(  11) =    30.44879 eV ==== 
     psi = 0.279*[#  10]+0.170*[#  11]+0.170*[#  12]+0.170*[#  13]+0.015*[#   1]
          +0.010*[#   6]+0.010*[#   7]+0.010*[#   9]
    |psi|^2 = 0.834
==== e(  12) =    34.33657 eV ==== 
     psi = 0.193*[#  11]+0.193*[#  12]+0.193*[#  13]+0.102*[#  10]+0.006*[#   1]
          +0.004*[#   6]+0.004*[#   7]+0.004*[#   9]
    |psi|^2 = 0.704
==== e(  13) =    39.02845 eV ==== 
     psi = 0.077*[#  11]+0.077*[#  12]+0.077*[#  13]
    |psi|^2 = 0.235
==== e(  14) =    41.29489 eV ==== 
     psi = 0.190*[#  11]+0.190*[#  12]+0.190*[#  13]+0.032*[#  10]+0.002*[#   1]
          
    |psi|^2 = 0.610

 k =  -0.0220678702 -0.1103393511  0.1544750915
==== e(   1) =   -96.93257 eV ==== 
     psi = 0.951*[#   1]+0.016*[#  11]+0.016*[#  12]+0.016*[#  13]+0.001*[#  10]
          
    |psi|^2 = 1.000
==== e(   2) =   -54.29295 eV ==== 
     psi = 0.333*[#   2]+0.333*[#   3]+0.333*[#   4]+0.002*[#  10]
    |psi|^2 = 1.000
==== e(   3) =   -54.27979 eV ==== 
     psi = 0.332*[#   2]+0.332*[#   3]+0.332*[#   4]+0.001*[#  11]+0.001*[#  12]
          +0.001*[#  13]
    |psi|^2 = 1.000
==== e(   4) =   -54.27584 eV ==== 
     psi = 0.332*[#   2]+0.332*[#   3]+0.332*[#   4]+0.001*[#  11]+0.001*[#  12]
          +0.001*[#  13]
    |psi|^2 = 1.000
==== e(   5) =     7.14737 eV ==== 
     psi = 0.635*[#  10]+0.112*[#  11]+0.112*[#  12]+0.112*[#  13]+0.025*[#   1]
          
    |psi|^2 = 1.000
==== e(   6) =    12.43388 eV ==== 
     psi = 0.326*[#   6]+0.326*[#   7]+0.326*[#   9]+0.003*[#  11]+0.003*[#  12]
          +0.003*[#  13]
    |psi|^2 = 0.988
==== e(   7) =    12.76697 eV ==== 
     psi = 0.304*[#   6]+0.304*[#   7]+0.304*[#   9]+0.036*[#   5]+0.036*[#   8]
          +0.002*[#  11]+0.002*[#  12]+0.002*[#  13]
    |psi|^2 = 0.992
==== e(   8) =    12.77206 eV ==== 
     psi = 0.328*[#   6]+0.328*[#   7]+0.328*[#   9]+0.003*[#   5]+0.003*[#   8]
          
    |psi|^2 = 0.991
==== e(   9) =    13.28192 eV ==== 
     psi = 0.491*[#   5]+0.491*[#   8]+0.004*[#   6]+0.004*[#   7]+0.004*[#   9]
          
    |psi|^2 = 0.994
==== e(  10) =    13.47635 eV ==== 
     psi = 0.465*[#   5]+0.465*[#   8]+0.022*[#   6]+0.022*[#   7]+0.022*[#   9]
          
    |psi|^2 = 0.996
==== e(  11) =    33.59783 eV ==== 
     psi = 0.178*[#  11]+0.178*[#  12]+0.178*[#  13]+0.098*[#  10]+0.007*[#   1]
          +0.006*[#   6]+0.006*[#   7]+0.006*[#   9]
    |psi|^2 = 0.658
==== e(  12) =    35.05122 eV ==== 
     psi = 0.172*[#  11]+0.172*[#  12]+0.172*[#  13]+0.163*[#  10]+0.011*[#   1]
          +0.003*[#   6]+0.003*[#   7]+0.003*[#   9]
    |psi|^2 = 0.703
==== e(  13) =    39.32646 eV ==== 
     psi = 0.091*[#  11]+0.091*[#  12]+0.091*[#  13]+0.001*[#  10]
    |psi|^2 = 0.277
==== e(  14) =    40.89599 eV ==== 
     psi = 0.152*[#  11]+0.152*[#  12]+0.152*[#  13]+0.002*[#  10]
    |psi|^2 = 0.461

 k =   0.0220678702 -0.0662036106  0.1103393511
==== e(   1) =   -96.93396 eV ==== 
     psi = 0.961*[#   1]+0.011*[#  11]+0.011*[#  12]+0.011*[#  13]+0.005*[#  10]
          
    |psi|^2 = 1.000
==== e(   2) =   -54.28294 eV ==== 
     psi = 0.333*[#   2]+0.333*[#   3]+0.333*[#   4]+0.001*[#  10]
    |psi|^2 = 1.000
==== e(   3) =   -54.27629 eV ==== 
     psi = 0.332*[#   2]+0.332*[#   3]+0.332*[#   4]+0.001*[#  11]+0.001*[#  12]
          +0.001*[#  13]
    |psi|^2 = 1.000
==== e(   4) =   -54.27474 eV ==== 
     psi = 0.332*[#   2]+0.332*[#   3]+0.332*[#   4]+0.001*[#  11]+0.001*[#  12]
          +0.001*[#  13]
    |psi|^2 = 1.000
==== e(   5) =     6.69401 eV ==== 
     psi = 0.770*[#  10]+0.069*[#  11]+0.069*[#  12]+0.069*[#  13]+0.022*[#   1]
          
    |psi|^2 = 1.000
==== e(   6) =    12.52481 eV ==== 
     psi = 0.328*[#   6]+0.328*[#   7]+0.328*[#   9]+0.001*[#  11]+0.001*[#  12]
          +0.001*[#  13]
    |psi|^2 = 0.988
==== e(   7) =    12.69602 eV ==== 
     psi = 0.329*[#   6]+0.329*[#   7]+0.329*[#   9]
    |psi|^2 = 0.990
==== e(   8) =    12.70423 eV ==== 
     psi = 0.325*[#   6]+0.325*[#   7]+0.325*[#   9]+0.006*[#   5]+0.006*[#   8]
          +0.001*[#  11]+0.001*[#  12]+0.001*[#  13]
    |psi|^2 = 0.991
==== e(   9) =    13.34300 eV ==== 
     psi = 0.496*[#   5]+0.496*[#   8]+0.001*[#   6]+0.001*[#   7]+0.001*[#   9]
          
    |psi|^2 = 0.995
==== e(  10) =    13.43628 eV ==== 
     psi = 0.493*[#   5]+0.493*[#   8]+0.004*[#   6]+0.004*[#   7]+0.004*[#   9]
          
    |psi|^2 = 0.996
==== e(  11) =    35.59782 eV ==== 
     psi = 0.130*[#  11]+0.130*[#  12]+0.130*[#  13]+0.047*[#  10]+0.004*[#   1]
          +0.004*[#   6]+0.004*[#   7]+0.004*[#   9]
    |psi|^2 = 0.454
==== e(  12) =    37.11495 eV ==== 
     psi = 0.170*[#  11]+0.170*[#  12]+0.170*[#  13]+0.094*[#  10]+0.007*[#   1]
          +0.002*[#   6]+0.002*[#   7]+0.002*[#   9]
    |psi|^2 = 0.620
==== e(  13) =    38.94203 eV ==== 
     psi = 0.141*[#  11]+0.141*[#  12]+0.141*[#  13]+0.004*[#  10]
    |psi|^2 = 0.433
==== e(  14) =    40.39421 eV ==== 
     psi = 0.199*[#  11]+0.199*[#  12]+0.199*[#  13]+0.009*[#  10]
    |psi|^2 = 0.611

 k =   0.1986108319  0.0220678702  0.0220678702
==== e(   1) =   -96.93227 eV ==== 
     psi = 0.947*[#   1]+0.017*[#  11]+0.017*[#  12]+0.017*[#  13]
    |psi|^2 = 1.000
==== e(   2) =   -54.29155 eV ==== 
     psi = 0.333*[#   2]+0.333*[#   3]+0.333*[#   4]+0.002*[#  10]
    |psi|^2 = 1.000
==== e(   3) =   -54.28024 eV ==== 
     psi = 0.332*[#   2]+0.332*[#   3]+0.332*[#   4]+0.001*[#  11]+0.001*[#  12]
          +0.001*[#  13]
    |psi|^2 = 1.000
==== e(   4) =   -54.27996 eV ==== 
     psi = 0.332*[#   2]+0.332*[#   3]+0.332*[#   4]+0.001*[#  11]+0.001*[#  12]
          +0.001*[#  13]
    |psi|^2 = 1.000
==== e(   5) =     7.23792 eV ==== 
     psi = 0.609*[#  10]+0.120*[#  11]+0.120*[#  12]+0.120*[#  13]+0.025*[#   1]
          +0.002*[#   5]+0.002*[#   8]
    |psi|^2 = 1.000
==== e(   6) =    12.35997 eV ==== 
     psi = 0.328*[#   6]+0.328*[#   7]+0.328*[#   9]
    |psi|^2 = 0.985
==== e(   7) =    12.83493 eV ==== 
     psi = 0.324*[#   6]+0.324*[#   7]+0.324*[#   9]+0.006*[#   5]+0.006*[#   8]
          +0.002*[#  11]+0.002*[#  12]+0.002*[#  13]
    |psi|^2 = 0.992
==== e(   8) =    12.83679 eV ==== 
     psi = 0.327*[#   6]+0.327*[#   7]+0.327*[#   9]+0.003*[#   5]+0.003*[#   8]
          +0.002*[#  11]+0.002*[#  12]+0.002*[#  13]
    |psi|^2 = 0.993
==== e(   9) =    13.19519 eV ==== 
     psi = 0.488*[#   5]+0.488*[#   8]+0.004*[#   6]+0.004*[#   7]+0.004*[#   9]
          +0.002*[#  10]
    |psi|^2 = 0.992
==== e(  10) =    13.51193 eV ==== 
     psi = 0.495*[#   5]+0.495*[#   8]+0.002*[#   6]+0.002*[#   7]+0.002*[#   9]
          
    |psi|^2 = 0.996
==== e(  11) =    34.84900 eV ==== 
     psi = 0.175*[#  11]+0.175*[#  12]+0.175*[#  13]+0.032*[#  10]+0.005*[#   6]
          +0.005*[#   7]+0.005*[#   9]+0.002*[#   1]
    |psi|^2 = 0.576
==== e(  12) =    35.83643 eV ==== 
     psi = 0.271*[#  11]+0.271*[#  12]+0.271*[#  13]+0.004*[#   6]+0.004*[#   7]
          +0.004*[#   9]
    |psi|^2 = 0.827
==== e(  13) =    36.44652 eV ==== 
     psi = 0.067*[#  11]+0.067*[#  12]+0.067*[#  13]+0.037*[#  10]+0.003*[#   6]
          +0.003*[#   7]+0.003*[#   9]+0.003*[#   1]
    |psi|^2 = 0.250
==== e(  14) =    38.08786 eV ==== 
     psi = 0.089*[#  11]+0.089*[#  12]+0.089*[#  13]+0.077*[#  10]+0.005*[#   1]
          +0.001*[#   5]+0.001*[#   8]
    |psi|^2 = 0.355

 k =   0.2427465724  0.0662036106 -0.0220678702
==== e(   1) =   -96.93074 eV ==== 
     psi = 0.944*[#   1]+0.019*[#  11]+0.019*[#  12]+0.019*[#  13]
    |psi|^2 = 1.000
==== e(   2) =   -54.30190 eV ==== 
     psi = 0.333*[#   2]+0.333*[#   3]+0.333*[#   4]+0.002*[#  10]
    |psi|^2 = 1.000
==== e(   3) =   -54.28400 eV ==== 
     psi = 0.332*[#   2]+0.332*[#   3]+0.332*[#   4]
    |psi|^2 = 1.000
==== e(   4) =   -54.28188 eV ==== 
     psi = 0.332*[#   2]+0.332*[#   3]+0.332*[#   4]
    |psi|^2 = 1.000
==== e(   5) =     7.76389 eV ==== 
     psi = 0.516*[#  10]+0.148*[#  11]+0.148*[#  12]+0.148*[#  13]+0.026*[#   1]
          +0.004*[#   5]+0.004*[#   8]
    |psi|^2 = 1.000
==== e(   6) =    12.24835 eV ==== 
     psi = 0.326*[#   6]+0.326*[#   7]+0.326*[#   9]+0.002*[#  11]+0.002*[#  12]
          +0.002*[#  13]
    |psi|^2 = 0.984
==== e(   7) =    12.88118 eV ==== 
     psi = 0.254*[#   6]+0.254*[#   7]+0.254*[#   9]+0.111*[#   5]+0.111*[#   8]
          +0.003*[#  11]+0.003*[#  12]+0.003*[#  13]
    |psi|^2 = 0.992
==== e(   8) =    12.93667 eV ==== 
     psi = 0.322*[#   6]+0.322*[#   7]+0.322*[#   9]+0.009*[#   5]+0.009*[#   8]
          +0.003*[#  11]+0.003*[#  12]+0.003*[#  13]
    |psi|^2 = 0.993
==== e(   9) =    13.16564 eV ==== 
     psi = 0.396*[#   5]+0.396*[#   8]+0.063*[#   6]+0.063*[#   7]+0.063*[#   9]
          +0.004*[#  10]+0.003*[#  11]+0.003*[#  12]+0.003*[#  13]
    |psi|^2 = 0.992
==== e(  10) =    13.56473 eV ==== 
     psi = 0.472*[#   5]+0.472*[#   8]+0.017*[#   6]+0.017*[#   7]+0.017*[#   9]
          
    |psi|^2 = 0.996
==== e(  11) =    32.84039 eV ==== 
     psi = 0.210*[#  11]+0.210*[#  12]+0.210*[#  13]+0.076*[#  10]+0.007*[#   6]
          +0.007*[#   7]+0.007*[#   9]+0.004*[#   1]
    |psi|^2 = 0.733
==== e(  12) =    34.12839 eV ==== 
     psi = 0.228*[#  11]+0.228*[#  12]+0.228*[#  13]+0.074*[#  10]+0.004*[#   1]
          +0.004*[#   6]+0.004*[#   7]+0.004*[#   9]
    |psi|^2 = 0.778
==== e(  13) =    36.72703 eV ==== 
     psi = 0.066*[#  11]+0.066*[#  12]+0.066*[#  13]+0.014*[#  10]+0.003*[#   6]
          +0.003*[#   7]+0.003*[#   9]
    |psi|^2 = 0.222
==== e(  14) =    37.98146 eV ==== 
     psi = 0.035*[#  11]+0.035*[#  12]+0.035*[#  13]+0.002*[#   5]+0.002*[#   8]
          
    |psi|^2 = 0.112

 k =   0.2868823128  0.1103393511 -0.0662036106
==== e(   1) =   -96.92875 eV ==== 
     psi = 0.948*[#   1]+0.017*[#  11]+0.017*[#  12]+0.017*[#  13]
    |psi|^2 = 1.000
==== e(   2) =   -54.31659 eV ==== 
     psi = 0.332*[#   2]+0.332*[#   3]+0.332*[#   4]+0.001*[#  10]
    |psi|^2 = 1.000
==== e(   3) =   -54.28771 eV ==== 
     psi = 0.333*[#   2]+0.333*[#   3]+0.333*[#   4]
    |psi|^2 = 1.000
==== e(   4) =   -54.28431 eV ==== 
     psi = 0.332*[#   2]+0.332*[#   3]+0.332*[#   4]
    |psi|^2 = 1.000
==== e(   5) =     8.51059 eV ==== 
     psi = 0.433*[#  10]+0.169*[#  11]+0.169*[#  12]+0.169*[#  13]+0.023*[#   1]
[...]
          
    |psi|^2 = 0.874

 k =  -0.3310180532 -0.3310180532  0.9047826788
==== e(   1) =   -96.92273 eV ==== 
     psi = 0.992*[#   1]+0.002*[#  11]+0.002*[#  12]+0.002*[#  13]
    |psi|^2 = 1.000
==== e(   2) =   -54.36339 eV ==== 
     psi = 0.331*[#   2]+0.331*[#   3]+0.331*[#   4]+0.002*[#  11]+0.002*[#  12]
          +0.002*[#  13]
    |psi|^2 = 1.000
==== e(   3) =   -54.29862 eV ==== 
     psi = 0.333*[#   2]+0.333*[#   3]+0.333*[#   4]
    |psi|^2 = 1.000
==== e(   4) =   -54.28938 eV ==== 
     psi = 0.332*[#   2]+0.332*[#   3]+0.332*[#   4]
    |psi|^2 = 1.000
==== e(   5) =    10.82288 eV ==== 
     psi = 0.228*[#   6]+0.228*[#   7]+0.228*[#   9]+0.210*[#  10]+0.032*[#  11]
          +0.032*[#  12]+0.032*[#  13]
    |psi|^2 = 0.992
==== e(   6) =    12.42383 eV ==== 
     psi = 0.347*[#   5]+0.347*[#   8]+0.085*[#   6]+0.085*[#   7]+0.085*[#   9]
          +0.012*[#  11]+0.012*[#  12]+0.012*[#  13]
    |psi|^2 = 0.986
==== e(   7) =    12.75219 eV ==== 
     psi = 0.318*[#   5]+0.318*[#   8]+0.117*[#   6]+0.117*[#   7]+0.117*[#   9]
          
    |psi|^2 = 0.990
==== e(   8) =    12.94556 eV ==== 
     psi = 0.197*[#   6]+0.197*[#   7]+0.197*[#   9]+0.098*[#  11]+0.098*[#  12]
          +0.098*[#  13]+0.053*[#   5]+0.053*[#   8]+0.004*[#  10]
    |psi|^2 = 0.998
==== e(   9) =    13.85584 eV ==== 
     psi = 0.214*[#   6]+0.214*[#   7]+0.214*[#   9]+0.177*[#   5]+0.177*[#   8]
          
    |psi|^2 = 0.997
==== e(  10) =    15.54438 eV ==== 
     psi = 0.167*[#  11]+0.167*[#  12]+0.167*[#  13]+0.091*[#   5]+0.091*[#   8]
          +0.086*[#   6]+0.086*[#   7]+0.086*[#   9]+0.055*[#  10]+0.001*[#   1]
          +0.001*[#   2]+0.001*[#   3]+0.001*[#   4]
    |psi|^2 = 0.999
==== e(  11) =    20.09749 eV ==== 
     psi = 0.561*[#  10]+0.077*[#  11]+0.077*[#  12]+0.077*[#  13]+0.065*[#   6]
          +0.065*[#   7]+0.065*[#   9]+0.002*[#   5]+0.002*[#   8]
    |psi|^2 = 0.991
==== e(  12) =    31.70387 eV ==== 
     psi = 0.203*[#  11]+0.203*[#  12]+0.203*[#  13]+0.109*[#  10]+0.005*[#   5]
          +0.005*[#   8]+0.004*[#   1]+0.003*[#   6]+0.003*[#   7]+0.003*[#   9]
          
    |psi|^2 = 0.742
==== e(  13) =    35.58738 eV ==== 
     psi = 0.277*[#  11]+0.277*[#  12]+0.277*[#  13]+0.004*[#   5]+0.004*[#   8]
          
    |psi|^2 = 0.842
==== e(  14) =    36.41440 eV ==== 
     psi = 0.056*[#  11]+0.056*[#  12]+0.056*[#  13]+0.042*[#  10]+0.001*[#   1]
          
    |psi|^2 = 0.213

 k =  -0.2868823128 -0.2868823128  0.8606469384
==== e(   1) =   -96.92172 eV ==== 
     psi = 0.992*[#   1]+0.002*[#  11]+0.002*[#  12]+0.002*[#  13]+0.001*[#  10]
          
    |psi|^2 = 1.000
==== e(   2) =   -54.35948 eV ==== 
     psi = 0.331*[#   2]+0.331*[#   3]+0.331*[#   4]+0.002*[#  11]+0.002*[#  12]
          +0.002*[#  13]
    |psi|^2 = 1.000
==== e(   3) =   -54.30952 eV ==== 
     psi = 0.333*[#   2]+0.333*[#   3]+0.333*[#   4]
    |psi|^2 = 1.000
==== e(   4) =   -54.29270 eV ==== 
     psi = 0.333*[#   2]+0.333*[#   3]+0.333*[#   4]
    |psi|^2 = 1.000
==== e(   5) =    11.16572 eV ==== 
     psi = 0.248*[#   6]+0.248*[#   7]+0.248*[#   9]+0.142*[#  10]+0.035*[#  11]
          +0.035*[#  12]+0.035*[#  13]
    |psi|^2 = 0.992
==== e(   6) =    12.19077 eV ==== 
     psi = 0.405*[#   5]+0.405*[#   8]+0.032*[#  11]+0.032*[#  12]+0.032*[#  13]
          +0.026*[#   6]+0.026*[#   7]+0.026*[#   9]
    |psi|^2 = 0.986
==== e(   7) =    12.66499 eV ==== 
     psi = 0.258*[#   6]+0.258*[#   7]+0.258*[#   9]+0.067*[#  11]+0.067*[#  12]
          +0.067*[#  13]+0.010*[#   5]+0.010*[#   8]
    |psi|^2 = 0.996
==== e(   8) =    12.93115 eV ==== 
     psi = 0.344*[#   5]+0.344*[#   8]+0.099*[#   6]+0.099*[#   7]+0.099*[#   9]
          +0.002*[#  11]+0.002*[#  12]+0.002*[#  13]
    |psi|^2 = 0.992
==== e(   9) =    13.85927 eV ==== 
     psi = 0.233*[#   6]+0.233*[#   7]+0.233*[#   9]+0.149*[#   5]+0.149*[#   8]
          
    |psi|^2 = 0.997
==== e(  10) =    16.78092 eV ==== 
     psi = 0.204*[#  11]+0.204*[#  12]+0.204*[#  13]+0.070*[#   5]+0.070*[#   8]
          +0.061*[#   6]+0.061*[#   7]+0.061*[#   9]+0.059*[#  10]+0.001*[#   2]
          +0.001*[#   3]+0.001*[#   4]
    |psi|^2 = 0.999
==== e(  11) =    19.88712 eV ==== 
     psi = 0.504*[#  10]+0.094*[#  11]+0.094*[#  12]+0.094*[#  13]+0.066*[#   6]
          +0.066*[#   7]+0.066*[#   9]+0.004*[#   5]+0.004*[#   8]
    |psi|^2 = 0.993
==== e(  12) =    29.01128 eV ==== 
     psi = 0.221*[#  10]+0.193*[#  11]+0.193*[#  12]+0.193*[#  13]+0.009*[#   5]
          +0.009*[#   8]+0.005*[#   1]+0.004*[#   6]+0.004*[#   7]+0.004*[#   9]
          
    |psi|^2 = 0.835
==== e(  13) =    33.89229 eV ==== 
     psi = 0.290*[#  11]+0.290*[#  12]+0.290*[#  13]+0.005*[#   5]+0.005*[#   8]
          
    |psi|^2 = 0.884
==== e(  14) =    35.78747 eV ==== 
     psi = 0.053*[#  10]+0.028*[#  11]+0.028*[#  12]+0.028*[#  13]+0.001*[#   6]
          +0.001*[#   7]+0.001*[#   9]
    |psi|^2 = 0.144

 k =   0.3751537937  0.2868823128  0.2868823128
==== e(   1) =   -96.92329 eV ==== 
     psi = 0.995*[#   1]+0.002*[#  11]+0.002*[#  12]+0.002*[#  13]
    |psi|^2 = 1.000
==== e(   2) =   -54.36675 eV ==== 
     psi = 0.331*[#   2]+0.331*[#   3]+0.331*[#   4]+0.003*[#  11]+0.003*[#  12]
          +0.003*[#  13]
    |psi|^2 = 1.000
==== e(   3) =   -54.28973 eV ==== 
     psi = 0.332*[#   2]+0.332*[#   3]+0.332*[#   4]
    |psi|^2 = 1.000
==== e(   4) =   -54.28902 eV ==== 
     psi = 0.332*[#   2]+0.332*[#   3]+0.332*[#   4]
    |psi|^2 = 1.000
==== e(   5) =    10.59863 eV ==== 
     psi = 0.263*[#  10]+0.223*[#   6]+0.223*[#   7]+0.223*[#   9]+0.018*[#  11]
          +0.018*[#  12]+0.018*[#  13]
    |psi|^2 = 0.990
==== e(   6) =    12.54543 eV ==== 
     psi = 0.315*[#   5]+0.315*[#   8]+0.116*[#   6]+0.116*[#   7]+0.116*[#   9]
          +0.003*[#  11]+0.003*[#  12]+0.003*[#  13]
    |psi|^2 = 0.987
==== e(   7) =    12.64385 eV ==== 
     psi = 0.290*[#   5]+0.290*[#   8]+0.136*[#   6]+0.136*[#   7]+0.136*[#   9]
          
    |psi|^2 = 0.989
==== e(   8) =    13.37702 eV ==== 
     psi = 0.162*[#   6]+0.162*[#   7]+0.162*[#   9]+0.108*[#  11]+0.108*[#  12]
          +0.108*[#  13]+0.088*[#   5]+0.088*[#   8]+0.008*[#  10]
    |psi|^2 = 0.998
==== e(   9) =    13.97394 eV ==== 
     psi = 0.206*[#   5]+0.206*[#   8]+0.195*[#   6]+0.195*[#   7]+0.195*[#   9]
          
    |psi|^2 = 0.998
==== e(  10) =    14.70813 eV ==== 
     psi = 0.171*[#  11]+0.171*[#  12]+0.171*[#  13]+0.091*[#   5]+0.091*[#   8]
          +0.090*[#   6]+0.090*[#   7]+0.090*[#   9]+0.029*[#  10]+0.001*[#   1]
          +0.001*[#   2]+0.001*[#   3]+0.001*[#   4]
    |psi|^2 = 0.999
==== e(  11) =    19.90743 eV ==== 
     psi = 0.637*[#  10]+0.071*[#   6]+0.071*[#   7]+0.071*[#   9]+0.046*[#  11]
          +0.046*[#  12]+0.046*[#  13]
    |psi|^2 = 0.991
==== e(  12) =    35.41084 eV ==== 
     psi = 0.065*[#  11]+0.065*[#  12]+0.065*[#  13]+0.010*[#  10]+0.002*[#   5]
          +0.002*[#   8]
    |psi|^2 = 0.212
==== e(  13) =    35.83154 eV ==== 
     psi = 0.284*[#  11]+0.284*[#  12]+0.284*[#  13]+0.001*[#   5]+0.001*[#   8]
          
    |psi|^2 = 0.861
==== e(  14) =    36.53665 eV ==== 
     psi = 0.218*[#  11]+0.218*[#  12]+0.218*[#  13]+0.037*[#  10]+0.001*[#   1]
          
    |psi|^2 = 0.695

 k =  -0.2868823128 -0.3751537937  0.9489184193
==== e(   1) =   -96.92270 eV ==== 
     psi = 0.995*[#   1]+0.002*[#  11]+0.002*[#  12]+0.002*[#  13]
    |psi|^2 = 1.000
==== e(   2) =   -54.36610 eV ==== 
     psi = 0.331*[#   2]+0.331*[#   3]+0.331*[#   4]+0.003*[#  11]+0.003*[#  12]
          +0.003*[#  13]
    |psi|^2 = 1.000
==== e(   3) =   -54.29541 eV ==== 
     psi = 0.333*[#   2]+0.333*[#   3]+0.333*[#   4]
    |psi|^2 = 1.000
==== e(   4) =   -54.29007 eV ==== 
     psi = 0.332*[#   2]+0.332*[#   3]+0.332*[#   4]
    |psi|^2 = 1.000
==== e(   5) =    10.78600 eV ==== 
     psi = 0.237*[#   6]+0.237*[#   7]+0.237*[#   9]+0.217*[#  10]+0.020*[#  11]
          +0.020*[#  12]+0.020*[#  13]
    |psi|^2 = 0.991
==== e(   6) =    12.44388 eV ==== 
     psi = 0.346*[#   5]+0.346*[#   8]+0.088*[#   6]+0.088*[#   7]+0.088*[#   9]
          +0.009*[#  11]+0.009*[#  12]+0.009*[#  13]
    |psi|^2 = 0.986
==== e(   7) =    12.71572 eV ==== 
     psi = 0.305*[#   5]+0.305*[#   8]+0.126*[#   6]+0.126*[#   7]+0.126*[#   9]
          +0.001*[#  11]+0.001*[#  12]+0.001*[#  13]
    |psi|^2 = 0.989
==== e(   8) =    13.10470 eV ==== 
     psi = 0.193*[#   6]+0.193*[#   7]+0.193*[#   9]+0.095*[#  11]+0.095*[#  12]
          +0.095*[#  13]+0.064*[#   5]+0.064*[#   8]+0.002*[#  10]
    |psi|^2 = 0.998
==== e(   9) =    13.94702 eV ==== 
     psi = 0.206*[#   6]+0.206*[#   7]+0.206*[#   9]+0.190*[#   5]+0.190*[#   8]
          
    |psi|^2 = 0.998
==== e(  10) =    15.56236 eV ==== 
     psi = 0.204*[#  11]+0.204*[#  12]+0.204*[#  13]+0.082*[#   5]+0.082*[#   8]
          +0.065*[#   6]+0.065*[#   7]+0.065*[#   9]+0.024*[#  10]+0.002*[#   2]
          +0.002*[#   3]+0.002*[#   4]
    |psi|^2 = 0.999
==== e(  11) =    19.55404 eV ==== 
     psi = 0.620*[#  10]+0.078*[#   6]+0.078*[#   7]+0.078*[#   9]+0.045*[#  11]
          +0.045*[#  12]+0.045*[#  13]
    |psi|^2 = 0.993
==== e(  12) =    33.31260 eV ==== 
     psi = 0.177*[#  11]+0.177*[#  12]+0.177*[#  13]+0.023*[#  10]+0.004*[#   5]
          +0.004*[#   8]+0.002*[#   6]+0.002*[#   7]+0.002*[#   9]
    |psi|^2 = 0.568
==== e(  13) =    34.15040 eV ==== 
     psi = 0.227*[#  11]+0.227*[#  12]+0.227*[#  13]+0.091*[#  10]+0.003*[#   1]
          +0.003*[#   5]+0.003*[#   8]
    |psi|^2 = 0.786
==== e(  14) =    37.27795 eV ==== 
     psi = 0.155*[#  11]+0.155*[#  12]+0.155*[#  13]
    |psi|^2 = 0.468

 k =  -0.2427465724 -0.3310180532  0.9047826788
==== e(   1) =   -96.92192 eV ==== 
     psi = 0.993*[#   1]+0.002*[#  11]+0.002*[#  12]+0.002*[#  13]
    |psi|^2 = 1.000
==== e(   2) =   -54.36248 eV ==== 
     psi = 0.331*[#   2]+0.331*[#   3]+0.331*[#   4]+0.002*[#  11]+0.002*[#  12]
          +0.002*[#  13]
    |psi|^2 = 1.000
==== e(   3) =   -54.30444 eV ==== 
     psi = 0.333*[#   2]+0.333*[#   3]+0.333*[#   4]
    |psi|^2 = 1.000
==== e(   4) =   -54.29276 eV ==== 
     psi = 0.333*[#   2]+0.333*[#   3]+0.333*[#   4]
    |psi|^2 = 1.000
==== e(   5) =    11.06431 eV ==== 
     psi = 0.249*[#   6]+0.249*[#   7]+0.249*[#   9]+0.157*[#  10]+0.028*[#  11]
          +0.028*[#  12]+0.028*[#  13]+0.001*[#   5]+0.001*[#   8]
    |psi|^2 = 0.992
==== e(   6) =    12.24984 eV ==== 
     psi = 0.396*[#   5]+0.396*[#   8]+0.038*[#   6]+0.038*[#   7]+0.038*[#   9]
          +0.026*[#  11]+0.026*[#  12]+0.026*[#  13]
    |psi|^2 = 0.986
==== e(   7) =    12.77937 eV ==== 
     psi = 0.245*[#   6]+0.245*[#   7]+0.245*[#   9]+0.073*[#  11]+0.073*[#  12]
          +0.073*[#  13]+0.020*[#   5]+0.020*[#   8]
    |psi|^2 = 0.996
==== e(   8) =    12.86898 eV ==== 
     psi = 0.326*[#   5]+0.326*[#   8]+0.110*[#   6]+0.110*[#   7]+0.110*[#   9]
          +0.002*[#  11]+0.002*[#  12]+0.002*[#  13]
    |psi|^2 = 0.991
==== e(   9) =    13.92609 eV ==== 
     psi = 0.221*[#   6]+0.221*[#   7]+0.221*[#   9]+0.166*[#   5]+0.166*[#   8]
          
    |psi|^2 = 0.997
==== e(  10) =    16.64180 eV ==== 
     psi = 0.231*[#  11]+0.231*[#  12]+0.231*[#  13]+0.074*[#   5]+0.074*[#   8]
          +0.049*[#   6]+0.049*[#   7]+0.049*[#   9]+0.008*[#  10]+0.001*[#   2]
          +0.001*[#   3]+0.001*[#   4]
    |psi|^2 = 0.999
==== e(  11) =    19.44752 eV ==== 
     psi = 0.585*[#  10]+0.079*[#   6]+0.079*[#   7]+0.079*[#   9]+0.057*[#  11]
          +0.057*[#  12]+0.057*[#  13]
    |psi|^2 = 0.994
==== e(  12) =    30.68222 eV ==== 
     psi = 0.202*[#  11]+0.202*[#  12]+0.202*[#  13]+0.129*[#  10]+0.007*[#   5]
          +0.007*[#   8]+0.004*[#   1]+0.003*[#   6]+0.003*[#   7]+0.003*[#   9]
          
    |psi|^2 = 0.763
==== e(  13) =    32.57128 eV ==== 
     psi = 0.229*[#  11]+0.229*[#  12]+0.229*[#  13]+0.088*[#  10]+0.005*[#   5]
          +0.005*[#   8]+0.002*[#   1]+0.002*[#   6]+0.002*[#   7]+0.002*[#   9]
          
    |psi|^2 = 0.791
==== e(  14) =    37.37470 eV ==== 
     psi = 0.101*[#  11]+0.101*[#  12]+0.101*[#  13]+0.008*[#  10]
    |psi|^2 = 0.313

 k =  -0.9489184193  0.2868823128  0.2868823128
==== e(   1) =   -96.92242 eV ==== 
     psi = 0.995*[#   1]+0.002*[#  11]+0.002*[#  12]+0.002*[#  13]
    |psi|^2 = 1.000
==== e(   2) =   -54.36578 eV ==== 
     psi = 0.331*[#   2]+0.331*[#   3]+0.331*[#   4]+0.002*[#  11]+0.002*[#  12]
          +0.002*[#  13]
    |psi|^2 = 1.000
==== e(   3) =   -54.29766 eV ==== 
     psi = 0.333*[#   2]+0.333*[#   3]+0.333*[#   4]
    |psi|^2 = 1.000
==== e(   4) =   -54.29105 eV ==== 
     psi = 0.332*[#   2]+0.332*[#   3]+0.332*[#   4]
    |psi|^2 = 1.000
==== e(   5) =    10.87039 eV ==== 
     psi = 0.244*[#   6]+0.244*[#   7]+0.244*[#   9]+0.197*[#  10]+0.019*[#  11]
          +0.019*[#  12]+0.019*[#  13]+0.001*[#   5]+0.001*[#   8]
    |psi|^2 = 0.991
==== e(   6) =    12.38837 eV ==== 
     psi = 0.366*[#   5]+0.366*[#   8]+0.070*[#   6]+0.070*[#   7]+0.070*[#   9]
          +0.014*[#  11]+0.014*[#  12]+0.014*[#  13]
    |psi|^2 = 0.986
==== e(   7) =    12.75294 eV ==== 
     psi = 0.308*[#   5]+0.308*[#   8]+0.123*[#   6]+0.123*[#   7]+0.123*[#   9]
          +0.001*[#  11]+0.001*[#  12]+0.001*[#  13]
    |psi|^2 = 0.990
==== e(   8) =    13.01717 eV ==== 
     psi = 0.212*[#   6]+0.212*[#   7]+0.212*[#   9]+0.087*[#  11]+0.087*[#  12]
          +0.087*[#  13]+0.048*[#   5]+0.048*[#   8]
    |psi|^2 = 0.997
==== e(   9) =    13.96390 eV ==== 
     psi = 0.208*[#   6]+0.208*[#   7]+0.208*[#   9]+0.187*[#   5]+0.187*[#   8]
          
    |psi|^2 = 0.998
==== e(  10) =    15.97957 eV ==== 
     psi = 0.229*[#  11]+0.229*[#  12]+0.229*[#  13]+0.077*[#   5]+0.077*[#   8]
          +0.050*[#   6]+0.050*[#   7]+0.050*[#   9]+0.003*[#  10]+0.002*[#   2]
          +0.002*[#   3]+0.002*[#   4]
    |psi|^2 = 0.999
==== e(  11) =    19.32024 eV ==== 
     psi = 0.631*[#  10]+0.085*[#   6]+0.085*[#   7]+0.085*[#   9]+0.036*[#  11]
          +0.036*[#  12]+0.036*[#  13]
    |psi|^2 = 0.994
==== e(  12) =    32.27570 eV ==== 
     psi = 0.181*[#  11]+0.181*[#  12]+0.181*[#  13]+0.099*[#  10]+0.005*[#   5]
          +0.005*[#   8]+0.003*[#   1]+0.002*[#   6]+0.002*[#   7]+0.002*[#   9]
          
    |psi|^2 = 0.663
==== e(  13) =    34.70155 eV ==== 
     psi = 0.287*[#  11]+0.287*[#  12]+0.287*[#  13]+0.003*[#   5]+0.003*[#   8]
          
    |psi|^2 = 0.872
==== e(  14) =    36.00657 eV ==== 
     psi = 0.075*[#  11]+0.075*[#  12]+0.075*[#  13]+0.051*[#  10]+0.001*[#   1]
          +0.001*[#   6]+0.001*[#   7]+0.001*[#   9]
    |psi|^2 = 0.281

 k =   0.3310180532  0.3310180532  0.3310180532
==== e(   1) =   -96.92329 eV ==== 
     psi = 0.999*[#   1]
    |psi|^2 = 1.000
==== e(   2) =   -54.36945 eV ==== 
     psi = 0.330*[#   2]+0.330*[#   3]+0.330*[#   4]+0.003*[#  11]+0.003*[#  12]
          +0.003*[#  13]
    |psi|^2 = 1.000
==== e(   3) =   -54.28802 eV ==== 
     psi = 0.332*[#   2]+0.332*[#   3]+0.332*[#   4]+0.001*[#  11]+0.001*[#  12]
          +0.001*[#  13]
    |psi|^2 = 1.000
==== e(   4) =   -54.28802 eV ==== 
     psi = 0.332*[#   2]+0.332*[#   3]+0.332*[#   4]+0.001*[#  11]+0.001*[#  12]
          +0.001*[#  13]
    |psi|^2 = 1.000
==== e(   5) =    10.56219 eV ==== 
     psi = 0.275*[#  10]+0.233*[#   6]+0.233*[#   7]+0.233*[#   9]+0.004*[#  11]
          +0.004*[#  12]+0.004*[#  13]
    |psi|^2 = 0.989
==== e(   6) =    12.58887 eV ==== 
     psi = 0.294*[#   5]+0.294*[#   8]+0.134*[#   6]+0.134*[#   7]+0.134*[#   9]
          
    |psi|^2 = 0.988
==== e(   7) =    12.58887 eV ==== 
     psi = 0.294*[#   5]+0.294*[#   8]+0.134*[#   6]+0.134*[#   7]+0.134*[#   9]
          
    |psi|^2 = 0.988
==== e(   8) =    13.96465 eV ==== 
     psi = 0.202*[#   5]+0.202*[#   8]+0.198*[#   6]+0.198*[#   7]+0.198*[#   9]
          
    |psi|^2 = 0.998
==== e(   9) =    13.96465 eV ==== 
     psi = 0.202*[#   5]+0.202*[#   8]+0.198*[#   6]+0.198*[#   7]+0.198*[#   9]
          
    |psi|^2 = 0.998
==== e(  10) =    14.34038 eV ==== 
     psi = 0.310*[#  11]+0.310*[#  12]+0.310*[#  13]+0.015*[#  10]+0.015*[#   6]
          +0.015*[#   7]+0.015*[#   9]+0.003*[#   2]+0.003*[#   3]+0.003*[#   4]
          
    |psi|^2 = 0.999
==== e(  11) =    19.41743 eV ==== 
     psi = 0.694*[#  10]+0.084*[#   6]+0.084*[#   7]+0.084*[#   9]+0.015*[#  11]
          +0.015*[#  12]+0.015*[#  13]
    |psi|^2 = 0.992
==== e(  12) =    36.37133 eV ==== 
 
    |psi|^2 = 0.000
==== e(  13) =    37.08665 eV ==== 
     psi = 0.308*[#  11]+0.308*[#  12]+0.308*[#  13]
    |psi|^2 = 0.928
==== e(  14) =    37.08665 eV ==== 
     psi = 0.308*[#  11]+0.308*[#  12]+0.308*[#  13]
    |psi|^2 = 0.928

 k =  -0.3310180532 -0.3310180532  0.9930541597
==== e(   1) =   -96.92299 eV ==== 
     psi = 0.998*[#   1]
    |psi|^2 = 1.000
==== e(   2) =   -54.36911 eV ==== 
     psi = 0.330*[#   2]+0.330*[#   3]+0.330*[#   4]+0.003*[#  11]+0.003*[#  12]
          +0.003*[#  13]
    |psi|^2 = 1.000
==== e(   3) =   -54.29081 eV ==== 
     psi = 0.332*[#   2]+0.332*[#   3]+0.332*[#   4]
    |psi|^2 = 1.000
==== e(   4) =   -54.28873 eV ==== 
     psi = 0.332*[#   2]+0.332*[#   3]+0.332*[#   4]
    |psi|^2 = 1.000
==== e(   5) =    10.65820 eV ==== 
     psi = 0.249*[#  10]+0.240*[#   6]+0.240*[#   7]+0.240*[#   9]+0.007*[#  11]
          +0.007*[#  12]+0.007*[#  13]
    |psi|^2 = 0.990
==== e(   6) =    12.53751 eV ==== 
     psi = 0.311*[#   5]+0.311*[#   8]+0.119*[#   6]+0.119*[#   7]+0.119*[#   9]
          +0.002*[#  11]+0.002*[#  12]+0.002*[#  13]
    |psi|^2 = 0.987
==== e(   7) =    12.62660 eV ==== 
     psi = 0.299*[#   5]+0.299*[#   8]+0.130*[#   6]+0.130*[#   7]+0.130*[#   9]
          
    |psi|^2 = 0.988
==== e(   8) =    13.52654 eV ==== 
     psi = 0.164*[#   6]+0.164*[#   7]+0.164*[#   9]+0.116*[#   5]+0.116*[#   8]
          +0.090*[#  11]+0.090*[#  12]+0.090*[#  13]
    |psi|^2 = 0.998
==== e(   9) =    13.96095 eV ==== 
     psi = 0.202*[#   6]+0.202*[#   7]+0.202*[#   9]+0.196*[#   5]+0.196*[#   8]
          
    |psi|^2 = 0.998
==== e(  10) =    15.08490 eV ==== 
     psi = 0.235*[#  11]+0.235*[#  12]+0.235*[#  13]+0.069*[#   5]+0.069*[#   8]
          +0.049*[#   6]+0.049*[#   7]+0.049*[#   9]+0.002*[#  10]+0.002*[#   2]
          +0.002*[#   3]+0.002*[#   4]
    |psi|^2 = 0.999
==== e(  11) =    19.21227 eV ==== 
     psi = 0.688*[#  10]+0.090*[#   6]+0.090*[#   7]+0.090*[#   9]+0.012*[#  11]
          +0.012*[#  12]+0.012*[#  13]
    |psi|^2 = 0.993
==== e(  12) =    34.86819 eV ==== 
     psi = 0.145*[#  11]+0.145*[#  12]+0.145*[#  13]+0.022*[#  10]+0.002*[#   5]
          +0.002*[#   8]
    |psi|^2 = 0.467
==== e(  13) =    36.35749 eV ==== 
     psi = 0.287*[#  11]+0.287*[#  12]+0.287*[#  13]+0.002*[#   5]+0.002*[#   8]
          
    |psi|^2 = 0.867
==== e(  14) =    36.53134 eV ==== 
     psi = 0.140*[#  11]+0.140*[#  12]+0.140*[#  13]+0.023*[#  10]
    |psi|^2 = 0.446

Lowdin Charges: 

     Atom #   1: total charge =  18.9178, s =  2.4611, p =  7.0895, d =  9.3672, 
                 spin up      =   9.4589, s =  1.2305, 
                 spin up      =   9.4589, p =  3.5448, pz=  1.1816, px=  1.1816, py=  1.1816, 
                 spin up      =   9.4589, d =  4.6836, dz2=  0.9483, dxz=  0.9290, dyz=  0.9290, dx2-y2=  0.9483, dxy=  0.9290, 
                 spin down    =   9.4589, s =  1.2305, 
                 spin down    =   9.4589, p =  3.5448, pz=  1.1816, px=  1.1816, py=  1.1816, 
                 spin down    =   9.4589, d =  4.6836, dz2=  0.9483, dxz=  0.9290, dyz=  0.9290, dx2-y2=  0.9483, dxy=  0.9290, 
                 polarization =  -0.0000, s =  0.0000, p =  0.0000, d = -0.0000, 
     Spilling Parameter:   0.0043
 
     PROJWFC      :      1.32s CPU      2.40s WALL

 
   This run was terminated on:  13:27:38   4Jun2024            

=------------------------------------------------------------------------------=
   JOB DONE.
=------------------------------------------------------------------------------=
