
     Program PWSCF v.7.2 starts on  4Jun2024 at 13:27:23 

     This program is part of the open-source Quantum ESPRESSO suite
     for quantum simulation of materials; please cite
         "P. Giannozzi et al., J. Phys.:Condens. Matter 21 395502 (2009);
         "P. Giannozzi et al., J. Phys.:Condens. Matter 29 465901 (2017);
         "P. Giannozzi et al., J. Chem. Phys. 152 154105 (2020);
          URL http://www.quantum-espresso.org", 
     in publications or presentations arising from this work. More details at
     http://www.quantum-espresso.org/quote

     Parallel version (MPI), running on    16 processors

     MPI processes distributed on     1 nodes
     182196 MiB available memory on the printing compute node when the environment starts
 
     Reading input from scf.in

     Current dimensions of program PWSCF are:
     Max number of different atomic species (ntypx) = 10
     Max number of k-points (npk) =  40000
     Max angular momentum in pseudopotentials (lmaxx) =  4
     Message from routine setup:
     using ibrav=0 with symmetry is DISCOURAGED, use correct ibrav instead
 
     K-points division:     npool     =       2
     R & G space division:  proc/nbgrp/npool/nimage =       8
     Subspace diagonalization in iterative solution of the eigenvalue problem:
     a serial algorithm will be used

 
     Parallelization info
     --------------------
     sticks:   dense  smooth     PW     G-vecs:    dense   smooth      PW
     Min          64      31     10                  977      340      66
     Max          65      32     11                  979      344      69
     Sum         517     253     85                 7823     2741     537
 
     Using Slab Decomposition
 


     bravais-lattice index     =            0
     lattice parameter (alat)  =       4.8698  a.u.
     unit-cell volume          =      81.6608 (a.u.)^3
     number of atoms/cell      =            1
     number of atomic types    =            1
     number of electrons       =        19.00
     number of Kohn-Sham states=           14
     kinetic-energy cutoff     =      40.0000  Ry
     charge density cutoff     =     320.0000  Ry
     scf convergence threshold =      1.0E-08
     mixing beta               =       0.6000
     number of iterations used =            8  plain     mixing
     energy convergence thresh.=      1.0E-04
     force convergence thresh. =      1.0E-03
     press convergence thresh. =      5.0E-01
     Exchange-correlation= SLA  PW   PBE  PBE
                           (   1   4   3   4   0   0   0)
     nstep                     =          200


     celldm(1)=   4.869781  celldm(2)=   0.000000  celldm(3)=   0.000000
     celldm(4)=   0.000000  celldm(5)=   0.000000  celldm(6)=   0.000000

     crystal axes: (cart. coord. in units of alat)
               a(1) = (   0.000000   0.707107   0.707107 )  
               a(2) = (   0.707107   0.000000   0.707107 )  
               a(3) = (   0.707107   0.707107   0.000000 )  

     reciprocal axes: (cart. coord. in units 2 pi/alat)
               b(1) = ( -0.707107  0.707107  0.707107 )  
               b(2) = (  0.707107 -0.707107  0.707107 )  
               b(3) = (  0.707107  0.707107 -0.707107 )  


     PseudoPot. # 1 for Cu read from file:
     ../../pseudo/cu_pbe_v1.2.uspp.F.UPF
     MD5 check sum: 6e991ff952a84172a2a52a1c1e996048
     Pseudo is Ultrasoft + core correction, Zval = 19.0
     Generated by new atomic code, or converted to UPF format
     Using radial grid of  867 points,  6 beta functions with: 
                l(1) =   0
                l(2) =   0
                l(3) =   1
                l(4) =   1
                l(5) =   2
                l(6) =   2
     Q(r) pseudized with  8 coefficients,  rinner =    1.150   1.150   1.150
                                                       1.150   1.150

     atomic species   valence    mass     pseudopotential
        Cu            19.00    63.54600     Cu( 1.00)

     Starting magnetic structure 
     atomic species   magnetization
        Cu           1.000

     48 Sym. Ops., with inversion, found



   Cartesian axes

     site n.     atom                  positions (alat units)
         1           Cu  tau(   1) = (   0.0000000   0.0000000   0.0000000  )

     number of k points=    10  Methfessel-Paxton smearing, width (Ry)=  0.0100
                       cart. coord. in units 2pi/alat
        k(    1) = (   0.0883883   0.0883883   0.0883883), wk =   0.0312500
        k(    2) = (   0.2651650   0.2651650  -0.0883883), wk =   0.0937500
        k(    3) = (  -0.2651650  -0.2651650   0.4419417), wk =   0.0937500
        k(    4) = (  -0.0883883  -0.0883883   0.2651650), wk =   0.0937500
        k(    5) = (   0.4419417   0.0883883   0.0883883), wk =   0.0937500
        k(    6) = (  -0.0883883  -0.4419417   0.6187184), wk =   0.1875000
        k(    7) = (   0.0883883  -0.2651650   0.4419417), wk =   0.1875000
        k(    8) = (  -0.6187184   0.0883883   0.0883883), wk =   0.0937500
        k(    9) = (   0.2651650   0.2651650   0.2651650), wk =   0.0312500
        k(   10) = (  -0.2651650  -0.2651650   0.7954951), wk =   0.0937500

     Dense  grid:     7823 G-vectors     FFT dimensions: (  27,  27,  27)

     Smooth grid:     2741 G-vectors     FFT dimensions: (  20,  20,  20)

     Estimated max dynamical RAM per process >       5.52 MB

     Estimated total dynamical RAM >      84.43 MB

     Check: negative core charge=   -0.000001
     Generating pointlists ...
     new r_m :   0.4125 (alat units)  2.0088 (a.u.) for type    1

     Initial potential from superposition of free atoms

     starting charge      18.0000, renormalised to      19.0000
     Starting wfcs are   13 randomized atomic wfcs +    1 random wfcs

     total cpu time spent up to now is        0.2 secs

     Self-consistent Calculation

     iteration #  1     ecut=    40.00 Ry     beta= 0.60
     Davidson diagonalization with overlap
     ethr =  1.00E-02,  avg # of iterations =  5.2

     total cpu time spent up to now is        0.2 secs

     total energy              =    -394.32749970 Ry
     estimated scf accuracy    <      21.48874309 Ry

     total magnetization       =     6.39 Bohr mag/cell
     absolute magnetization    =     6.39 Bohr mag/cell

     iteration #  2     ecut=    40.00 Ry     beta= 0.60
     Davidson diagonalization with overlap
     ethr =  1.00E-02,  avg # of iterations =  3.1
     Minimization algorithm failed to find Fermi energy: reverting to bisection
     Possible cause: smearing is larger than the electronic band-gap.

     total cpu time spent up to now is        0.3 secs

     total energy              =    -401.35223380 Ry
     estimated scf accuracy    <      21.87353296 Ry

     total magnetization       =     0.31 Bohr mag/cell
     absolute magnetization    =     0.49 Bohr mag/cell

     iteration #  3     ecut=    40.00 Ry     beta= 0.60
     Davidson diagonalization with overlap
     ethr =  1.00E-02,  avg # of iterations =  2.0

     total cpu time spent up to now is        0.3 secs

     total energy              =    -403.15405576 Ry
     estimated scf accuracy    <       3.93827266 Ry

     total magnetization       =     0.31 Bohr mag/cell
     absolute magnetization    =     0.71 Bohr mag/cell

     iteration #  4     ecut=    40.00 Ry     beta= 0.60
     Davidson diagonalization with overlap
     ethr =  1.00E-02,  avg # of iterations =  2.1

     total cpu time spent up to now is        0.3 secs

     total energy              =    -402.75961831 Ry
     estimated scf accuracy    <       4.76005848 Ry

     total magnetization       =     0.09 Bohr mag/cell
     absolute magnetization    =     0.21 Bohr mag/cell

     iteration #  5     ecut=    40.00 Ry     beta= 0.60
     Davidson diagonalization with overlap
     ethr =  1.00E-02,  avg # of iterations =  2.0

     total cpu time spent up to now is        0.4 secs

     total energy              =    -403.78189492 Ry
     estimated scf accuracy    <       0.22229070 Ry

     total magnetization       =    -0.21 Bohr mag/cell
     absolute magnetization    =     0.21 Bohr mag/cell

     iteration #  6     ecut=    40.00 Ry     beta= 0.60
     Davidson diagonalization with overlap
     ethr =  1.17E-03,  avg # of iterations =  1.0

     total cpu time spent up to now is        0.4 secs

     total energy              =    -403.75590135 Ry
     estimated scf accuracy    <       0.07805479 Ry

     total magnetization       =    -0.06 Bohr mag/cell
     absolute magnetization    =     0.06 Bohr mag/cell

     iteration #  7     ecut=    40.00 Ry     beta= 0.60
     Davidson diagonalization with overlap
     ethr =  4.11E-04,  avg # of iterations =  2.0

     total cpu time spent up to now is        0.4 secs

     total energy              =    -403.77485874 Ry
     estimated scf accuracy    <       0.02190072 Ry

     total magnetization       =    -0.04 Bohr mag/cell
     absolute magnetization    =     0.04 Bohr mag/cell

     iteration #  8     ecut=    40.00 Ry     beta= 0.60
     Davidson diagonalization with overlap
     ethr =  1.15E-04,  avg # of iterations =  1.0

     total cpu time spent up to now is        0.5 secs

     total energy              =    -403.77784448 Ry
     estimated scf accuracy    <       0.00005153 Ry

     total magnetization       =    -0.02 Bohr mag/cell
     absolute magnetization    =     0.02 Bohr mag/cell

     iteration #  9     ecut=    40.00 Ry     beta= 0.60
     Davidson diagonalization with overlap
     ethr =  2.71E-07,  avg # of iterations =  3.4

     total cpu time spent up to now is        0.5 secs

     total energy              =    -403.77789156 Ry
     estimated scf accuracy    <       0.00004402 Ry

     total magnetization       =    -0.00 Bohr mag/cell
     absolute magnetization    =     0.00 Bohr mag/cell

     iteration # 10     ecut=    40.00 Ry     beta= 0.60
     Davidson diagonalization with overlap
     ethr =  2.32E-07,  avg # of iterations =  2.0

     total cpu time spent up to now is        0.5 secs

     total energy              =    -403.77789943 Ry
     estimated scf accuracy    <       0.00001463 Ry

     total magnetization       =    -0.00 Bohr mag/cell
     absolute magnetization    =     0.00 Bohr mag/cell

     iteration # 11     ecut=    40.00 Ry     beta= 0.60
     Davidson diagonalization with overlap
     ethr =  7.70E-08,  avg # of iterations =  2.0

     total cpu time spent up to now is        0.6 secs

     total energy              =    -403.77790275 Ry
     estimated scf accuracy    <       0.00001074 Ry

     total magnetization       =     0.00 Bohr mag/cell
     absolute magnetization    =     0.00 Bohr mag/cell

     iteration # 12     ecut=    40.00 Ry     beta= 0.60
     Davidson diagonalization with overlap
     ethr =  5.65E-08,  avg # of iterations =  1.0

     total cpu time spent up to now is        0.6 secs

     total energy              =    -403.77790455 Ry
     estimated scf accuracy    <       0.00000007 Ry

     total magnetization       =     0.00 Bohr mag/cell
     absolute magnetization    =     0.00 Bohr mag/cell

     iteration # 13     ecut=    40.00 Ry     beta= 0.60
     Davidson diagonalization with overlap
     ethr =  3.46E-10,  avg # of iterations =  3.1
 
     Magnetic moment per site  (integrated on atomic sphere of radius R)
     atom   1 (R=0.413)  charge= 17.8350  magn=  0.0001

     total cpu time spent up to now is        0.6 secs

     End of self-consistent calculation

 ------ SPIN UP ------------


          k = 0.0884 0.0884 0.0884 (   335 PWs)   bands (ev):

   -96.8628 -54.2163 -54.2040 -54.2040   6.8941  12.5807  12.7804  12.7804
    13.4613  13.4613  34.1308  38.5229  39.2267  39.2267

          k = 0.2652 0.2652-0.0884 (   348 PWs)   bands (ev):

   -96.8558 -54.2638 -54.2229 -54.2107   9.4938  12.2982  12.7283  12.9610
    13.4368  14.1305  26.2774  31.5616  38.7190  39.2394

          k =-0.2652-0.2652 0.4419 (   350 PWs)   bands (ev):

   -96.8517 -54.2944 -54.2254 -54.2202  10.8963  12.4545  12.8355  13.0067
    14.0634  15.7257  19.9220  32.7793  34.5095  36.0249

          k =-0.0884-0.0884 0.2652 (   344 PWs)   bands (ev):

   -96.8587 -54.2417 -54.2135 -54.2120   8.2912  12.2686  12.8913  13.0038
    13.3730  13.6871  30.2502  34.7348  36.0766  38.4629

          k = 0.4419 0.0884 0.0884 (   342 PWs)   bands (ev):

   -96.8529 -54.2706 -54.2296 -54.2269  10.3890  11.7970  12.8546  13.4251
    13.9740  14.2267  27.3219  30.5014  31.2043  34.8364

          k =-0.0884-0.4419 0.6187 (   353 PWs)   bands (ev):

   -96.8488 -54.2788 -54.2563 -54.2344  11.5412  11.8054  12.5783  13.5138
    14.0784  18.8625  21.8401  25.1742  27.3701  38.5125

          k = 0.0884-0.2652 0.4419 (   350 PWs)   bands (ev):

   -96.8517 -54.2791 -54.2388 -54.2219  11.0678  12.1044  12.4133  13.2198
    13.8251  15.4640  23.4394  28.8222  31.6905  39.0978

          k =-0.6187 0.0884 0.0884 (   352 PWs)   bands (ev):

   -96.8488 -54.2889 -54.2438 -54.2364  11.0222  11.4668  13.5646  13.8333
    14.1345  16.8672  24.1714  25.6333  29.2112  34.1017

          k = 0.2652 0.2652 0.2652 (   353 PWs)   bands (ev):

   -96.8541 -54.2860 -54.2146 -54.2146  10.1659  12.7206  12.7206  13.0456
    13.8921  13.8921  22.3445  36.8679  37.3863  37.3863

          k =-0.2652-0.2652 0.7955 (   358 PWs)   bands (ev):

   -96.8500 -54.2814 -54.2518 -54.2241  11.5270  12.0333  12.5322  13.2136
    13.8716  17.6833  20.7305  26.3643  32.9733  35.5426

 ------ SPIN DOWN ----------


          k = 0.0884 0.0884 0.0884 (   335 PWs)   bands (ev):

   -96.8626 -54.2161 -54.2038 -54.2038   6.8942  12.5808  12.7805  12.7805
    13.4615  13.4615  34.1309  38.5231  39.2269  39.2269

          k = 0.2652 0.2652-0.0884 (   348 PWs)   bands (ev):

   -96.8556 -54.2636 -54.2227 -54.2105   9.4939  12.2984  12.7285  12.9611
    13.4369  14.1307  26.2776  31.5617  38.7191  39.2395

          k =-0.2652-0.2652 0.4419 (   350 PWs)   bands (ev):

   -96.8515 -54.2942 -54.2252 -54.2200  10.8965  12.4547  12.8356  13.0069
    14.0636  15.7258  19.9222  32.7795  34.5097  36.0251

          k =-0.0884-0.0884 0.2652 (   344 PWs)   bands (ev):

   -96.8585 -54.2415 -54.2133 -54.2118   8.2913  12.2688  12.8915  13.0040
    13.3732  13.6873  30.2504  34.7349  36.0767  38.4630

          k = 0.4419 0.0884 0.0884 (   342 PWs)   bands (ev):

   -96.8527 -54.2704 -54.2294 -54.2267  10.3891  11.7972  12.8547  13.4252
    13.9742  14.2268  27.3220  30.5016  31.2045  34.8365

          k =-0.0884-0.4419 0.6187 (   353 PWs)   bands (ev):

   -96.8486 -54.2786 -54.2561 -54.2342  11.5414  11.8056  12.5784  13.5140
    14.0786  18.8626  21.8402  25.1743  27.3703  38.5126

          k = 0.0884-0.2652 0.4419 (   350 PWs)   bands (ev):

   -96.8515 -54.2789 -54.2386 -54.2217  11.0679  12.1046  12.4134  13.2200
    13.8253  15.4642  23.4395  28.8223  31.6907  39.0979

          k =-0.6187 0.0884 0.0884 (   352 PWs)   bands (ev):

   -96.8486 -54.2887 -54.2436 -54.2362  11.0224  11.4669  13.5648  13.8335
    14.1347  16.8673  24.1715  25.6334  29.2113  34.1019

          k = 0.2652 0.2652 0.2652 (   353 PWs)   bands (ev):

   -96.8539 -54.2858 -54.2144 -54.2144  10.1660  12.7207  12.7207  13.0457
    13.8923  13.8923  22.3447  36.8680  37.3864  37.3864

          k =-0.2652-0.2652 0.7955 (   358 PWs)   bands (ev):

   -96.8498 -54.2812 -54.2516 -54.2239  11.5271  12.0334  12.5324  13.2138
    13.8718  17.6835  20.7306  26.3645  32.9734  35.5427

     the Fermi energy is    15.5268 ev

!    total energy              =    -403.77790459 Ry
     estimated scf accuracy    <          3.2E-09 Ry
     smearing contrib. (-TS)   =      -0.00014363 Ry
     internal energy E=F+TS    =    -403.77776096 Ry

     The total energy is F=E-TS. E is the sum of the following terms:
     one-electron contribution =    -271.69167790 Ry
     hartree contribution      =     147.05388940 Ry
     xc contribution           =     -38.80940375 Ry
     ewald contribution        =    -240.33056870 Ry

     total magnetization       =     0.00 Bohr mag/cell
     absolute magnetization    =     0.00 Bohr mag/cell

     convergence has been achieved in  13 iterations

     Forces acting on atoms (cartesian axes, Ry/au):

     atom    1 type  1   force =     0.00000000    0.00000000    0.00000000
     The non-local contrib.  to forces
     atom    1 type  1   force =    -0.00000000    0.00000000    0.00000000
     The ionic contribution  to forces
     atom    1 type  1   force =     0.00000000    0.00000000    0.00000000
     The local contribution  to forces
     atom    1 type  1   force =     0.00000000    0.00000000    0.00000000
     The core correction contribution to forces
     atom    1 type  1   force =     0.00000000    0.00000000    0.00000000
     The Hubbard contrib.    to forces
     atom    1 type  1   force =     0.00000000    0.00000000    0.00000000
     The SCF correction term to forces
     atom    1 type  1   force =    -0.00000000    0.00000000    0.00000000

     Total force =     0.000000     Total SCF correction =     0.000000


     Computing stress (Cartesian axis) and pressure

          total   stress  (Ry/bohr**3)                   (kbar)     P=        7.05
   0.00004795  -0.00000000  -0.00000000            7.05       -0.00       -0.00
  -0.00000000   0.00004795  -0.00000000           -0.00        7.05       -0.00
  -0.00000000  -0.00000000   0.00004795           -0.00       -0.00        7.05


     BFGS Geometry Optimization
     Energy error            =      0.0E+00 Ry
     Gradient error          =      0.0E+00 Ry/Bohr
     Cell gradient error     =      7.1E+00 kbar

     number of scf cycles    =   1
     number of bfgs steps    =   0

     enthalpy           new  =    -403.7779045891 Ry

     new trust radius        =       0.0021666336 bohr
     new conv_thr            =       0.0000000100 Ry

     new unit-cell volume =     81.95479 a.u.^3 (    12.14445 Ang^3 )
     density =      8.68879 g/cm^3

CELL_PARAMETERS (angstrom)
  -0.000000000   1.824382607   1.824382607
   1.824382607  -0.000000000   1.824382607
   1.824382607   1.824382607  -0.000000000

ATOMIC_POSITIONS (angstrom)
Cu            0.0000000000        0.0000000000        0.0000000000



     Writing config-only to output data dir ./output/opt.save/
     NEW-OLD atomic charge density approx. for the potential

     Check: negative core charge=   -0.000001
     extrapolated charge   19.06458, renormalised to   19.00000
     Generating pointlists ...

     total cpu time spent up to now is        0.7 secs

     Self-consistent Calculation

     iteration #  1     ecut=    40.00 Ry     beta= 0.60
     Davidson diagonalization with overlap
     ethr =  1.00E-06,  avg # of iterations =  4.2

     total cpu time spent up to now is        0.7 secs

     total energy              =    -403.74266398 Ry
     estimated scf accuracy    <       0.03616006 Ry

     total magnetization       =     0.00 Bohr mag/cell
     absolute magnetization    =     0.00 Bohr mag/cell

     iteration #  2     ecut=    40.00 Ry     beta= 0.60
     Davidson diagonalization with overlap
     ethr =  1.90E-04,  avg # of iterations =  3.0
     Minimization algorithm failed to find Fermi energy: reverting to bisection
     Possible cause: smearing is larger than the electronic band-gap.

     total cpu time spent up to now is        0.8 secs

     total energy              =    -403.75915391 Ry
     estimated scf accuracy    <       0.28205605 Ry

     total magnetization       =     0.00 Bohr mag/cell
     absolute magnetization    =     0.00 Bohr mag/cell

     iteration #  3     ecut=    40.00 Ry     beta= 0.60
     Davidson diagonalization with overlap
     ethr =  1.90E-04,  avg # of iterations =  2.0
     Minimization algorithm failed to find Fermi energy: reverting to bisection
     Possible cause: smearing is larger than the electronic band-gap.

     total cpu time spent up to now is        0.8 secs

     total energy              =    -403.77714849 Ry
     estimated scf accuracy    <       0.02354387 Ry

     total magnetization       =     0.00 Bohr mag/cell
     absolute magnetization    =     0.00 Bohr mag/cell

     iteration #  4     ecut=    40.00 Ry     beta= 0.60
     Davidson diagonalization with overlap
     ethr =  1.24E-04,  avg # of iterations =  1.1
     Minimization algorithm failed to find Fermi energy: reverting to bisection
     Possible cause: smearing is larger than the electronic band-gap.

     total cpu time spent up to now is        0.9 secs

     total energy              =    -403.77869542 Ry
     estimated scf accuracy    <       0.00399141 Ry

     total magnetization       =     0.00 Bohr mag/cell
     absolute magnetization    =     0.00 Bohr mag/cell

     iteration #  5     ecut=    40.00 Ry     beta= 0.60
     Davidson diagonalization with overlap
     ethr =  2.10E-05,  avg # of iterations =  1.0
     Minimization algorithm failed to find Fermi energy: reverting to bisection
     Possible cause: smearing is larger than the electronic band-gap.

     total cpu time spent up to now is        0.9 secs

     total energy              =    -403.77815701 Ry
     estimated scf accuracy    <       0.00506925 Ry

     total magnetization       =     0.00 Bohr mag/cell
     absolute magnetization    =     0.00 Bohr mag/cell

     iteration #  6     ecut=    40.00 Ry     beta= 0.60
     Davidson diagonalization with overlap
     ethr =  2.10E-05,  avg # of iterations =  1.0

     total cpu time spent up to now is        0.9 secs

     total energy              =    -403.77790932 Ry
     estimated scf accuracy    <       0.00207578 Ry

     total magnetization       =     0.00 Bohr mag/cell
     absolute magnetization    =     0.00 Bohr mag/cell

     iteration #  7     ecut=    40.00 Ry     beta= 0.60
     Davidson diagonalization with overlap
     ethr =  1.09E-05,  avg # of iterations =  1.0

     total cpu time spent up to now is        0.9 secs

     total energy              =    -403.77795462 Ry
     estimated scf accuracy    <       0.00050130 Ry

     total magnetization       =     0.00 Bohr mag/cell
     absolute magnetization    =     0.00 Bohr mag/cell

     iteration #  8     ecut=    40.00 Ry     beta= 0.60
     Davidson diagonalization with overlap
     ethr =  2.64E-06,  avg # of iterations =  1.0

     total cpu time spent up to now is        1.0 secs

     total energy              =    -403.77795236 Ry
     estimated scf accuracy    <       0.00034743 Ry

     total magnetization       =     0.00 Bohr mag/cell
     absolute magnetization    =     0.00 Bohr mag/cell

     iteration #  9     ecut=    40.00 Ry     beta= 0.60
     Davidson diagonalization with overlap
     ethr =  1.83E-06,  avg # of iterations =  1.0

     total cpu time spent up to now is        1.0 secs

     total energy              =    -403.77796200 Ry
     estimated scf accuracy    <       0.00026447 Ry

     total magnetization       =     0.00 Bohr mag/cell
     absolute magnetization    =     0.00 Bohr mag/cell

     iteration # 10     ecut=    40.00 Ry     beta= 0.60
     Davidson diagonalization with overlap
     ethr =  1.39E-06,  avg # of iterations =  1.0

     total cpu time spent up to now is        1.0 secs

     total energy              =    -403.77785956 Ry
     estimated scf accuracy    <       0.00030963 Ry

     total magnetization       =     0.00 Bohr mag/cell
     absolute magnetization    =     0.00 Bohr mag/cell

     iteration # 11     ecut=    40.00 Ry     beta= 0.60
     Davidson diagonalization with overlap
     ethr =  1.39E-06,  avg # of iterations =  2.0

     total cpu time spent up to now is        1.1 secs

     total energy              =    -403.77790580 Ry
     estimated scf accuracy    <       0.00000008 Ry

     total magnetization       =     0.00 Bohr mag/cell
     absolute magnetization    =     0.00 Bohr mag/cell

     iteration # 12     ecut=    40.00 Ry     beta= 0.60
     Davidson diagonalization with overlap
     ethr =  4.06E-10,  avg # of iterations =  4.3

     total cpu time spent up to now is        1.1 secs

     total energy              =    -403.77790657 Ry
     estimated scf accuracy    <       0.00000006 Ry

     total magnetization       =     0.00 Bohr mag/cell
     absolute magnetization    =     0.00 Bohr mag/cell

     iteration # 13     ecut=    40.00 Ry     beta= 0.60
     Davidson diagonalization with overlap
     ethr =  2.97E-10,  avg # of iterations =  1.0

     total cpu time spent up to now is        1.1 secs

     total energy              =    -403.77790655 Ry
     estimated scf accuracy    <       0.00000006 Ry

     total magnetization       =     0.00 Bohr mag/cell
     absolute magnetization    =     0.00 Bohr mag/cell

     iteration # 14     ecut=    40.00 Ry     beta= 0.60
     Davidson diagonalization with overlap
     ethr =  2.97E-10,  avg # of iterations =  1.6

     total cpu time spent up to now is        1.2 secs

     total energy              =    -403.77790656 Ry
     estimated scf accuracy    <       0.00000006 Ry

     total magnetization       =     0.00 Bohr mag/cell
     absolute magnetization    =     0.00 Bohr mag/cell

     iteration # 15     ecut=    40.00 Ry     beta= 0.60
     Davidson diagonalization with overlap
     ethr =  2.97E-10,  avg # of iterations =  1.0

     total cpu time spent up to now is        1.2 secs

     total energy              =    -403.77790656 Ry
     estimated scf accuracy    <       0.00000005 Ry

     total magnetization       =     0.00 Bohr mag/cell
     absolute magnetization    =     0.00 Bohr mag/cell

     iteration # 16     ecut=    40.00 Ry     beta= 0.60
     Davidson diagonalization with overlap
     ethr =  2.65E-10,  avg # of iterations =  1.0

     total cpu time spent up to now is        1.2 secs

     total energy              =    -403.77790655 Ry
     estimated scf accuracy    <       0.00000005 Ry

     total magnetization       =     0.00 Bohr mag/cell
     absolute magnetization    =     0.00 Bohr mag/cell

     iteration # 17     ecut=    40.00 Ry     beta= 0.60
     Davidson diagonalization with overlap
     ethr =  2.38E-10,  avg # of iterations =  1.0

     total cpu time spent up to now is        1.2 secs

     total energy              =    -403.77790655 Ry
     estimated scf accuracy    <       0.00000001 Ry

     total magnetization       =     0.00 Bohr mag/cell
     absolute magnetization    =     0.00 Bohr mag/cell

     iteration # 18     ecut=    40.00 Ry     beta= 0.60
     Davidson diagonalization with overlap
     ethr =  6.94E-11,  avg # of iterations =  1.2
 
     Magnetic moment per site  (integrated on atomic sphere of radius R)
     atom   1 (R=0.413)  charge= 17.8313  magn=  0.0000

     total cpu time spent up to now is        1.3 secs

     End of self-consistent calculation

 ------ SPIN UP ------------


          k = 0.0883 0.0883 0.0883 (   335 PWs)   bands (ev):

   -96.9270 -54.2810 -54.2689 -54.2689   6.8470  12.5192  12.7178  12.7178
    13.3949  13.3949  34.0186  38.4129  39.0988  39.0988

          k = 0.2648 0.2648-0.0883 (   348 PWs)   bands (ev):

   -96.9201 -54.3279 -54.2876 -54.2755   9.4411  12.2386  12.6662  12.8974
    13.3706  14.0606  26.1777  31.4521  38.6038  39.1081

          k =-0.2648-0.2648 0.4414 (   350 PWs)   bands (ev):

   -96.9160 -54.3581 -54.2901 -54.2849  10.8423  12.3942  12.7726  12.9443
    13.9937  15.6544  19.8320  32.6695  34.3912  35.9101

          k =-0.0883-0.0883 0.2648 (   344 PWs)   bands (ev):

   -96.9229 -54.3061 -54.2783 -54.2768   8.2408  12.2090  12.8282  12.9400
    13.3072  13.6194  30.1435  34.6164  35.9681  38.3391

          k = 0.4414 0.0883 0.0883 (   342 PWs)   bands (ev):

   -96.9172 -54.3345 -54.2942 -54.2915  10.3356  11.7400  12.7918  13.3590
    13.9048  14.1570  27.2211  30.3943  31.0955  34.7207

          k =-0.0883-0.4414 0.6180 (   353 PWs)   bands (ev):

   -96.9132 -54.3426 -54.3205 -54.2989  11.4858  11.7485  12.5173  13.4473
    14.0086  18.7815  21.7507  25.0751  27.2683  38.3909

          k = 0.0883-0.2648 0.4414 (   350 PWs)   bands (ev):

   -96.9160 -54.3430 -54.3032 -54.2866  11.0127  12.0461  12.3529  13.1550
    13.7568  15.3897  23.3455  28.7179  31.5797  38.9751

          k =-0.6180 0.0883 0.0883 (   352 PWs)   bands (ev):

   -96.9132 -54.3526 -54.3082 -54.3009  10.9692  11.4115  13.4984  13.7649
    14.0644  16.7928  24.0733  25.5366  29.1084  33.9873

          k = 0.2648 0.2648 0.2648 (   353 PWs)   bands (ev):

   -96.9184 -54.3497 -54.2794 -54.2794  10.1129  12.6583  12.6583  12.9838
    13.8233  13.8233  22.2513  36.7662  37.2588  37.2588

          k =-0.2648-0.2648 0.7945 (   358 PWs)   bands (ev):

   -96.9144 -54.3453 -54.3161 -54.2888  11.4707  11.9756  12.4716  13.1488
    13.8030  17.6049  20.6416  26.2637  32.8592  35.4279

 ------ SPIN DOWN ----------


          k = 0.0883 0.0883 0.0883 (   335 PWs)   bands (ev):

   -96.9270 -54.2810 -54.2689 -54.2689   6.8470  12.5192  12.7178  12.7178
    13.3949  13.3949  34.0186  38.4129  39.0988  39.0988

          k = 0.2648 0.2648-0.0883 (   348 PWs)   bands (ev):

   -96.9201 -54.3279 -54.2876 -54.2755   9.4411  12.2386  12.6662  12.8974
    13.3706  14.0606  26.1777  31.4521  38.6038  39.1081

          k =-0.2648-0.2648 0.4414 (   350 PWs)   bands (ev):

   -96.9160 -54.3581 -54.2901 -54.2849  10.8423  12.3942  12.7727  12.9443
    13.9937  15.6544  19.8320  32.6695  34.3912  35.9101

          k =-0.0883-0.0883 0.2648 (   344 PWs)   bands (ev):

   -96.9229 -54.3061 -54.2783 -54.2768   8.2408  12.2090  12.8282  12.9400
    13.3072  13.6194  30.1435  34.6164  35.9681  38.3391

          k = 0.4414 0.0883 0.0883 (   342 PWs)   bands (ev):

   -96.9172 -54.3345 -54.2942 -54.2915  10.3356  11.7400  12.7918  13.3590
    13.9048  14.1570  27.2211  30.3943  31.0955  34.7207

          k =-0.0883-0.4414 0.6180 (   353 PWs)   bands (ev):

   -96.9132 -54.3426 -54.3205 -54.2989  11.4858  11.7485  12.5173  13.4473
    14.0086  18.7815  21.7507  25.0751  27.2683  38.3909

          k = 0.0883-0.2648 0.4414 (   350 PWs)   bands (ev):

   -96.9160 -54.3430 -54.3032 -54.2866  11.0127  12.0461  12.3529  13.1550
    13.7568  15.3897  23.3455  28.7179  31.5797  38.9751

          k =-0.6180 0.0883 0.0883 (   352 PWs)   bands (ev):

   -96.9132 -54.3526 -54.3082 -54.3009  10.9692  11.4115  13.4984  13.7649
    14.0644  16.7928  24.0733  25.5366  29.1084  33.9873

          k = 0.2648 0.2648 0.2648 (   353 PWs)   bands (ev):

   -96.9184 -54.3497 -54.2794 -54.2794  10.1129  12.6583  12.6583  12.9838
    13.8233  13.8233  22.2513  36.7662  37.2588  37.2588

          k =-0.2648-0.2648 0.7945 (   358 PWs)   bands (ev):

   -96.9144 -54.3453 -54.3161 -54.2888  11.4707  11.9756  12.4716  13.1488
    13.8030  17.6049  20.6416  26.2637  32.8592  35.4279

     the Fermi energy is    15.4524 ev

!    total energy              =    -403.77790655 Ry
     estimated scf accuracy    <          1.0E-09 Ry
     smearing contrib. (-TS)   =      -0.00014724 Ry
     internal energy E=F+TS    =    -403.77775931 Ry

     The total energy is F=E-TS. E is the sum of the following terms:
     one-electron contribution =    -272.17944602 Ry
     hartree contribution      =     147.25224905 Ry
     xc contribution           =     -38.80775831 Ry
     ewald contribution        =    -240.04280404 Ry

     total magnetization       =     0.00 Bohr mag/cell
     absolute magnetization    =     0.00 Bohr mag/cell

     convergence has been achieved in  18 iterations

     Forces acting on atoms (cartesian axes, Ry/au):

     atom    1 type  1   force =     0.00000000    0.00000000    0.00000000
     The non-local contrib.  to forces
     atom    1 type  1   force =    -0.00000000    0.00000000    0.00000000
     The ionic contribution  to forces
     atom    1 type  1   force =     0.00000000    0.00000000    0.00000000
     The local contribution  to forces
     atom    1 type  1   force =     0.00000000    0.00000000    0.00000000
     The core correction contribution to forces
     atom    1 type  1   force =     0.00000000    0.00000000   -0.00000000
     The Hubbard contrib.    to forces
     atom    1 type  1   force =     0.00000000    0.00000000    0.00000000
     The SCF correction term to forces
     atom    1 type  1   force =    -0.00000000   -0.00000000    0.00000000

     Total force =     0.000000     Total SCF correction =     0.000000


     Computing stress (Cartesian axis) and pressure

          total   stress  (Ry/bohr**3)                   (kbar)     P=        0.74
   0.00000500  -0.00000000  -0.00000000            0.74       -0.00       -0.00
  -0.00000000   0.00000500  -0.00000000           -0.00        0.74       -0.00
  -0.00000000  -0.00000000   0.00000500           -0.00       -0.00        0.74

     Energy error            =      2.0E-06 Ry
     Gradient error          =      0.0E+00 Ry/Bohr
     Cell gradient error     =      7.4E-01 kbar

     number of scf cycles    =   2
     number of bfgs steps    =   1

     enthalpy           old  =    -403.7779045891 Ry
     enthalpy           new  =    -403.7779065503 Ry

     CASE: enthalpy          _new < enthalpy          _old

     new trust radius        =       0.0002530584 bohr
     new conv_thr            =            1.0E-10 Ry

     new unit-cell volume =     81.98916 a.u.^3 (    12.14954 Ang^3 )
     density =      8.68515 g/cm^3

CELL_PARAMETERS (angstrom)
  -0.000000000   1.824637595   1.824637595
   1.824637595  -0.000000000   1.824637595
   1.824637595   1.824637595  -0.000000000

ATOMIC_POSITIONS (angstrom)
Cu            0.0000000000        0.0000000000        0.0000000000



     Writing config-only to output data dir ./output/opt.save/
     NEW-OLD atomic charge density approx. for the potential

     Check: negative core charge=   -0.000001
     extrapolated charge   19.00755, renormalised to   19.00000
     Generating pointlists ...

     total cpu time spent up to now is        1.4 secs

     Self-consistent Calculation

     iteration #  1     ecut=    40.00 Ry     beta= 0.60
     Davidson diagonalization with overlap
     ethr =  1.00E-06,  avg # of iterations =  2.0

     total cpu time spent up to now is        1.4 secs

     total energy              =    -403.77748537 Ry
     estimated scf accuracy    <       0.00042886 Ry

     total magnetization       =     0.00 Bohr mag/cell
     absolute magnetization    =     0.00 Bohr mag/cell

     iteration #  2     ecut=    40.00 Ry     beta= 0.60
     Davidson diagonalization with overlap
     ethr =  2.26E-06,  avg # of iterations =  3.0
     Minimization algorithm failed to find Fermi energy: reverting to bisection
     Possible cause: smearing is larger than the electronic band-gap.

     total cpu time spent up to now is        1.4 secs

     total energy              =    -403.77763928 Ry
     estimated scf accuracy    <       0.00373412 Ry

     total magnetization       =     0.00 Bohr mag/cell
     absolute magnetization    =     0.00 Bohr mag/cell

     iteration #  3     ecut=    40.00 Ry     beta= 0.60
     Davidson diagonalization with overlap
     ethr =  2.26E-06,  avg # of iterations =  2.0

     total cpu time spent up to now is        1.5 secs

     total energy              =    -403.77781430 Ry
     estimated scf accuracy    <       0.00026209 Ry

     total magnetization       =     0.00 Bohr mag/cell
     absolute magnetization    =     0.00 Bohr mag/cell

     iteration #  4     ecut=    40.00 Ry     beta= 0.60
     Davidson diagonalization with overlap
     ethr =  1.38E-06,  avg # of iterations =  2.0

     total cpu time spent up to now is        1.5 secs

     total energy              =    -403.77786734 Ry
     estimated scf accuracy    <       0.00012309 Ry

     total magnetization       =     0.00 Bohr mag/cell
     absolute magnetization    =     0.00 Bohr mag/cell

     iteration #  5     ecut=    40.00 Ry     beta= 0.60
     Davidson diagonalization with overlap
     ethr =  6.48E-07,  avg # of iterations =  2.0

     total cpu time spent up to now is        1.5 secs

     total energy              =    -403.77790144 Ry
     estimated scf accuracy    <       0.00004656 Ry

     total magnetization       =     0.00 Bohr mag/cell
     absolute magnetization    =     0.00 Bohr mag/cell

     iteration #  6     ecut=    40.00 Ry     beta= 0.60
     Davidson diagonalization with overlap
     ethr =  2.45E-07,  avg # of iterations =  1.0

     total cpu time spent up to now is        1.6 secs

     total energy              =    -403.77790609 Ry
     estimated scf accuracy    <       0.00000136 Ry

     total magnetization       =     0.00 Bohr mag/cell
     absolute magnetization    =     0.00 Bohr mag/cell

     iteration #  7     ecut=    40.00 Ry     beta= 0.60
     Davidson diagonalization with overlap
     ethr =  7.18E-09,  avg # of iterations =  2.0

     total cpu time spent up to now is        1.6 secs

     total energy              =    -403.77790690 Ry
     estimated scf accuracy    <       0.00000056 Ry

     total magnetization       =     0.00 Bohr mag/cell
     absolute magnetization    =     0.00 Bohr mag/cell

     iteration #  8     ecut=    40.00 Ry     beta= 0.60
     Davidson diagonalization with overlap
     ethr =  2.97E-09,  avg # of iterations =  2.1

     total cpu time spent up to now is        1.6 secs

     total energy              =    -403.77790783 Ry
     estimated scf accuracy    <       0.00000725 Ry

     total magnetization       =     0.00 Bohr mag/cell
     absolute magnetization    =     0.00 Bohr mag/cell

     iteration #  9     ecut=    40.00 Ry     beta= 0.60
     Davidson diagonalization with overlap
     ethr =  2.97E-09,  avg # of iterations =  1.2

     total cpu time spent up to now is        1.6 secs

     total energy              =    -403.77790610 Ry
     estimated scf accuracy    <       0.00000964 Ry

     total magnetization       =     0.00 Bohr mag/cell
     absolute magnetization    =     0.00 Bohr mag/cell

     iteration # 10     ecut=    40.00 Ry     beta= 0.60
     Davidson diagonalization with overlap
     ethr =  2.97E-09,  avg # of iterations =  2.0

     total cpu time spent up to now is        1.7 secs

     total energy              =    -403.77790561 Ry
     estimated scf accuracy    <       0.00000221 Ry

     total magnetization       =     0.00 Bohr mag/cell
     absolute magnetization    =     0.00 Bohr mag/cell

     iteration # 11     ecut=    40.00 Ry     beta= 0.60
     Davidson diagonalization with overlap
     ethr =  2.97E-09,  avg # of iterations =  2.3

     total cpu time spent up to now is        1.7 secs

     total energy              =    -403.77790612 Ry
     estimated scf accuracy    <       0.00000015 Ry

     total magnetization       =     0.00 Bohr mag/cell
     absolute magnetization    =     0.00 Bohr mag/cell

     iteration # 12     ecut=    40.00 Ry     beta= 0.60
     Davidson diagonalization with overlap
     ethr =  7.78E-10,  avg # of iterations =  1.0

     total cpu time spent up to now is        1.7 secs

     total energy              =    -403.77790608 Ry
     estimated scf accuracy    <       0.00000013 Ry

     total magnetization       =     0.00 Bohr mag/cell
     absolute magnetization    =     0.00 Bohr mag/cell

     iteration # 13     ecut=    40.00 Ry     beta= 0.60
     Davidson diagonalization with overlap
     ethr =  6.80E-10,  avg # of iterations =  1.7

     total cpu time spent up to now is        1.8 secs

     total energy              =    -403.77790610 Ry
     estimated scf accuracy    <          2.0E-10 Ry

     total magnetization       =     0.00 Bohr mag/cell
     absolute magnetization    =     0.00 Bohr mag/cell

     iteration # 14     ecut=    40.00 Ry     beta= 0.60
     Davidson diagonalization with overlap
     ethr =  1.03E-12,  avg # of iterations =  3.2

     total cpu time spent up to now is        1.8 secs

     total energy              =    -403.77790610 Ry
     estimated scf accuracy    <       0.00000001 Ry

     total magnetization       =     0.00 Bohr mag/cell
     absolute magnetization    =     0.00 Bohr mag/cell

     iteration # 15     ecut=    40.00 Ry     beta= 0.60
     Davidson diagonalization with overlap
     ethr =  1.03E-12,  avg # of iterations =  3.0

     total cpu time spent up to now is        1.8 secs

     total energy              =    -403.77790610 Ry
     estimated scf accuracy    <          2.7E-10 Ry

     total magnetization       =     0.00 Bohr mag/cell
     absolute magnetization    =     0.00 Bohr mag/cell

     iteration # 16     ecut=    40.00 Ry     beta= 0.60
     Davidson diagonalization with overlap
     ethr =  1.03E-12,  avg # of iterations =  2.0

     total cpu time spent up to now is        1.9 secs

     total energy              =    -403.77790610 Ry
     estimated scf accuracy    <          1.2E-09 Ry

     total magnetization       =    -0.00 Bohr mag/cell
     absolute magnetization    =     0.00 Bohr mag/cell

     iteration # 17     ecut=    40.00 Ry     beta= 0.60
     Davidson diagonalization with overlap
     ethr =  1.03E-12,  avg # of iterations =  2.1

     total cpu time spent up to now is        1.9 secs

     total energy              =    -403.77790610 Ry
     estimated scf accuracy    <          1.6E-10 Ry

     total magnetization       =     0.00 Bohr mag/cell
     absolute magnetization    =     0.00 Bohr mag/cell

     iteration # 18     ecut=    40.00 Ry     beta= 0.60
     Davidson diagonalization with overlap
     ethr =  8.60E-13,  avg # of iterations =  1.0

     total cpu time spent up to now is        1.9 secs

     total energy              =    -403.77790610 Ry
     estimated scf accuracy    <          3.0E-10 Ry

     total magnetization       =     0.00 Bohr mag/cell
     absolute magnetization    =     0.00 Bohr mag/cell

     iteration # 19     ecut=    40.00 Ry     beta= 0.60
     Davidson diagonalization with overlap
     ethr =  8.60E-13,  avg # of iterations =  1.0

     total cpu time spent up to now is        2.0 secs

     total energy              =    -403.77790610 Ry
     estimated scf accuracy    <          1.8E-10 Ry

     total magnetization       =     0.00 Bohr mag/cell
     absolute magnetization    =     0.00 Bohr mag/cell

     iteration # 20     ecut=    40.00 Ry     beta= 0.60
     Davidson diagonalization with overlap
     ethr =  8.60E-13,  avg # of iterations =  2.0

     total cpu time spent up to now is        2.0 secs

     total energy              =    -403.77790610 Ry
     estimated scf accuracy    <          9.8E-10 Ry

     total magnetization       =     0.00 Bohr mag/cell
     absolute magnetization    =     0.00 Bohr mag/cell

     iteration # 21     ecut=    40.00 Ry     beta= 0.60
     Davidson diagonalization with overlap
     ethr =  8.60E-13,  avg # of iterations =  3.0

     total cpu time spent up to now is        2.1 secs

     total energy              =    -403.77790610 Ry
     estimated scf accuracy    <          6.3E-09 Ry

     total magnetization       =     0.00 Bohr mag/cell
     absolute magnetization    =     0.00 Bohr mag/cell

     iteration # 22     ecut=    40.00 Ry     beta= 0.60
     Davidson diagonalization with overlap
     ethr =  8.60E-13,  avg # of iterations =  3.0

     total cpu time spent up to now is        2.1 secs

     total energy              =    -403.77790610 Ry
     estimated scf accuracy    <          1.4E-10 Ry

     total magnetization       =     0.00 Bohr mag/cell
     absolute magnetization    =     0.00 Bohr mag/cell

     iteration # 23     ecut=    40.00 Ry     beta= 0.60
     Davidson diagonalization with overlap
     ethr =  7.25E-13,  avg # of iterations =  1.1
 
     Magnetic moment per site  (integrated on atomic sphere of radius R)
     atom   1 (R=0.413)  charge= 17.8309  magn=  0.0000

     total cpu time spent up to now is        2.1 secs

     End of self-consistent calculation

 ------ SPIN UP ------------


          k = 0.0883 0.0883 0.0883 (   335 PWs)   bands (ev):

   -96.9343 -54.2885 -54.2764 -54.2764   6.8415  12.5121  12.7105  12.7105
    13.3872  13.3872  34.0056  38.4001  39.0839  39.0839

          k = 0.2648 0.2648-0.0883 (   348 PWs)   bands (ev):

   -96.9274 -54.3352 -54.2950 -54.2830   9.4350  12.2318  12.6590  12.8901
    13.3630  14.0526  26.1661  31.4394  38.5904  39.0928

          k =-0.2648-0.2648 0.4414 (   350 PWs)   bands (ev):

   -96.9234 -54.3654 -54.2975 -54.2923  10.8361  12.3872  12.7654  12.9371
    13.9856  15.6461  19.8215  32.6568  34.3774  35.8967

          k =-0.0883-0.0883 0.2648 (   344 PWs)   bands (ev):

   -96.9303 -54.3135 -54.2857 -54.2842   8.2350  12.2021  12.8209  12.9327
    13.2996  13.6116  30.1310  34.6027  35.9554  38.3247

          k = 0.4414 0.0883 0.0883 (   342 PWs)   bands (ev):

   -96.9246 -54.3419 -54.3016 -54.2989  10.3293  11.7335  12.7845  13.3514
    13.8968  14.1489  27.2094  30.3818  31.0828  34.7073

          k =-0.0883-0.4414 0.6179 (   353 PWs)   bands (ev):

   -96.9206 -54.3500 -54.3279 -54.3063  11.4795  11.7419  12.5102  13.4396
    14.0005  18.7721  21.7403  25.0636  27.2564  38.3767

          k = 0.0883-0.2648 0.4414 (   350 PWs)   bands (ev):

   -96.9234 -54.3503 -54.3106 -54.2940  11.0063  12.0394  12.3459  13.1475
    13.7489  15.3811  23.3346  28.7058  31.5668  38.9608

          k =-0.6179 0.0883 0.0883 (   352 PWs)   bands (ev):

   -96.9206 -54.3599 -54.3156 -54.3083  10.9630  11.4052  13.4908  13.7570
    14.0563  16.7842  24.0619  25.5254  29.0965  33.9740

          k = 0.2648 0.2648 0.2648 (   353 PWs)   bands (ev):

   -96.9258 -54.3570 -54.2868 -54.2868  10.1068  12.6512  12.6512  12.9766
    13.8154  13.8154  22.2405  36.7543  37.2440  37.2440

          k =-0.2648-0.2648 0.7944 (   358 PWs)   bands (ev):

   -96.9218 -54.3526 -54.3234 -54.2962  11.4642  11.9689  12.4646  13.1413
    13.7951  17.5958  20.6313  26.2520  32.8459  35.4146

 ------ SPIN DOWN ----------


          k = 0.0883 0.0883 0.0883 (   335 PWs)   bands (ev):

   -96.9343 -54.2885 -54.2764 -54.2764   6.8415  12.5121  12.7105  12.7105
    13.3872  13.3872  34.0056  38.4001  39.0839  39.0839

          k = 0.2648 0.2648-0.0883 (   348 PWs)   bands (ev):

   -96.9274 -54.3352 -54.2950 -54.2830   9.4350  12.2318  12.6590  12.8901
    13.3630  14.0526  26.1661  31.4394  38.5904  39.0928

          k =-0.2648-0.2648 0.4414 (   350 PWs)   bands (ev):

   -96.9234 -54.3654 -54.2975 -54.2923  10.8361  12.3872  12.7654  12.9371
    13.9856  15.6461  19.8215  32.6568  34.3774  35.8967

          k =-0.0883-0.0883 0.2648 (   344 PWs)   bands (ev):

   -96.9303 -54.3135 -54.2857 -54.2842   8.2350  12.2021  12.8209  12.9327
    13.2996  13.6116  30.1310  34.6027  35.9554  38.3247

          k = 0.4414 0.0883 0.0883 (   342 PWs)   bands (ev):

   -96.9246 -54.3419 -54.3016 -54.2989  10.3293  11.7335  12.7845  13.3514
    13.8968  14.1489  27.2094  30.3818  31.0828  34.7073

          k =-0.0883-0.4414 0.6179 (   353 PWs)   bands (ev):

   -96.9206 -54.3500 -54.3279 -54.3063  11.4795  11.7419  12.5102  13.4396
    14.0005  18.7721  21.7403  25.0636  27.2564  38.3767

          k = 0.0883-0.2648 0.4414 (   350 PWs)   bands (ev):

   -96.9234 -54.3503 -54.3106 -54.2940  11.0063  12.0394  12.3459  13.1475
    13.7489  15.3811  23.3346  28.7058  31.5668  38.9608

          k =-0.6179 0.0883 0.0883 (   352 PWs)   bands (ev):

   -96.9206 -54.3599 -54.3156 -54.3083  10.9630  11.4052  13.4908  13.7570
    14.0563  16.7842  24.0619  25.5254  29.0965  33.9740

          k = 0.2648 0.2648 0.2648 (   353 PWs)   bands (ev):

   -96.9258 -54.3570 -54.2868 -54.2868  10.1068  12.6512  12.6512  12.9766
    13.8154  13.8154  22.2405  36.7543  37.2440  37.2440

          k =-0.2648-0.2648 0.7944 (   358 PWs)   bands (ev):

   -96.9218 -54.3526 -54.3234 -54.2962  11.4642  11.9689  12.4646  13.1413
    13.7951  17.5958  20.6313  26.2520  32.8459  35.4146

     the Fermi energy is    15.4437 ev

!    total energy              =    -403.77790610 Ry
     estimated scf accuracy    <          1.3E-11 Ry
     smearing contrib. (-TS)   =      -0.00014764 Ry
     internal energy E=F+TS    =    -403.77775846 Ry

     The total energy is F=E-TS. E is the sum of the following terms:
     one-electron contribution =    -272.23574602 Ry
     hartree contribution      =     147.27474239 Ry
     xc contribution           =     -38.80749608 Ry
     ewald contribution        =    -240.00925874 Ry

     total magnetization       =    -0.00 Bohr mag/cell
     absolute magnetization    =     0.00 Bohr mag/cell

     convergence has been achieved in  23 iterations

     Forces acting on atoms (cartesian axes, Ry/au):

     atom    1 type  1   force =     0.00000000    0.00000000    0.00000000
     The non-local contrib.  to forces
     atom    1 type  1   force =    -0.00000000   -0.00000000    0.00000000
     The ionic contribution  to forces
     atom    1 type  1   force =     0.00000000    0.00000000    0.00000000
     The local contribution  to forces
     atom    1 type  1   force =     0.00000000    0.00000000    0.00000000
     The core correction contribution to forces
     atom    1 type  1   force =    -0.00000000    0.00000000   -0.00000000
     The Hubbard contrib.    to forces
     atom    1 type  1   force =     0.00000000    0.00000000    0.00000000
     The SCF correction term to forces
     atom    1 type  1   force =    -0.00000000    0.00000000   -0.00000000

     Total force =     0.000000     Total SCF correction =     0.000000


     Computing stress (Cartesian axis) and pressure

          total   stress  (Ry/bohr**3)                   (kbar)     P=       -2.46
  -0.00001674   0.00000000   0.00000000           -2.46        0.00        0.00
   0.00000000  -0.00001674   0.00000000            0.00       -2.46        0.00
   0.00000000   0.00000000  -0.00001674            0.00        0.00       -2.46

     Energy error            =      4.5E-07 Ry
     Gradient error          =      0.0E+00 Ry/Bohr
     Cell gradient error     =      2.5E+00 kbar

     number of scf cycles    =   3
     number of bfgs steps    =   2

     enthalpy           old  =    -403.7779065503 Ry
     enthalpy           new  =    -403.7779060985 Ry

     CASE: enthalpy          _new > enthalpy          _old

     new trust radius        =       0.0000348634 bohr

     trust_radius < trust_radius_min

     resetting bfgs history

     new conv_thr            =            1.0E-10 Ry

     new unit-cell volume =     81.98553 a.u.^3 (    12.14900 Ang^3 )
     density =      8.68554 g/cm^3

CELL_PARAMETERS (angstrom)
  -0.000000000   1.824610637   1.824610637
   1.824610637  -0.000000000   1.824610637
   1.824610637   1.824610637  -0.000000000

ATOMIC_POSITIONS (angstrom)
Cu            0.0000000000        0.0000000000        0.0000000000



     Writing config-only to output data dir ./output/opt.save/
     NEW-OLD atomic charge density approx. for the potential

     Check: negative core charge=   -0.000001
     extrapolated charge   18.99920, renormalised to   19.00000
     Generating pointlists ...

     total cpu time spent up to now is        2.2 secs

     Self-consistent Calculation

     iteration #  1     ecut=    40.00 Ry     beta= 0.60
     Davidson diagonalization with overlap
     ethr =  1.00E-06,  avg # of iterations =  2.0

     Threshold (ethr) on eigenvalues was too large:
     Diagonalizing with lowered threshold

     Davidson diagonalization with overlap
     ethr =  2.49E-08,  avg # of iterations =  1.0

     total cpu time spent up to now is        2.3 secs

     total energy              =    -403.77790137 Ry
     estimated scf accuracy    <       0.00000487 Ry

     total magnetization       =    -0.00 Bohr mag/cell
     absolute magnetization    =     0.00 Bohr mag/cell

     iteration #  2     ecut=    40.00 Ry     beta= 0.60
     Davidson diagonalization with overlap
     ethr =  2.56E-08,  avg # of iterations =  3.0

     total cpu time spent up to now is        2.3 secs

     total energy              =    -403.77790306 Ry
     estimated scf accuracy    <       0.00004313 Ry

     total magnetization       =     0.00 Bohr mag/cell
     absolute magnetization    =     0.00 Bohr mag/cell

     iteration #  3     ecut=    40.00 Ry     beta= 0.60
     Davidson diagonalization with overlap
     ethr =  2.56E-08,  avg # of iterations =  2.0

     total cpu time spent up to now is        2.3 secs

     total energy              =    -403.77790698 Ry
     estimated scf accuracy    <       0.00000298 Ry

     total magnetization       =     0.00 Bohr mag/cell
     absolute magnetization    =     0.00 Bohr mag/cell

     iteration #  4     ecut=    40.00 Ry     beta= 0.60
     Davidson diagonalization with overlap
     ethr =  1.57E-08,  avg # of iterations =  1.0

     total cpu time spent up to now is        2.4 secs

     total energy              =    -403.77790687 Ry
     estimated scf accuracy    <       0.00000477 Ry

     total magnetization       =     0.00 Bohr mag/cell
     absolute magnetization    =     0.00 Bohr mag/cell

     iteration #  5     ecut=    40.00 Ry     beta= 0.60
     Davidson diagonalization with overlap
     ethr =  1.57E-08,  avg # of iterations =  1.0

     total cpu time spent up to now is        2.4 secs

     total energy              =    -403.77790687 Ry
     estimated scf accuracy    <       0.00000399 Ry

     total magnetization       =     0.00 Bohr mag/cell
     absolute magnetization    =     0.00 Bohr mag/cell

     iteration #  6     ecut=    40.00 Ry     beta= 0.60
     Davidson diagonalization with overlap
     ethr =  1.57E-08,  avg # of iterations =  1.0

     total cpu time spent up to now is        2.4 secs

     total energy              =    -403.77790616 Ry
     estimated scf accuracy    <       0.00000395 Ry

     total magnetization       =     0.00 Bohr mag/cell
     absolute magnetization    =     0.00 Bohr mag/cell

     iteration #  7     ecut=    40.00 Ry     beta= 0.60
     Davidson diagonalization with overlap
     ethr =  1.57E-08,  avg # of iterations =  1.0

     total cpu time spent up to now is        2.4 secs

     total energy              =    -403.77790615 Ry
     estimated scf accuracy    <       0.00000096 Ry

     total magnetization       =     0.00 Bohr mag/cell
     absolute magnetization    =     0.00 Bohr mag/cell

     iteration #  8     ecut=    40.00 Ry     beta= 0.60
     Davidson diagonalization with overlap
     ethr =  5.04E-09,  avg # of iterations =  1.0

     total cpu time spent up to now is        2.5 secs

     total energy              =    -403.77790610 Ry
     estimated scf accuracy    <       0.00000023 Ry

     total magnetization       =     0.00 Bohr mag/cell
     absolute magnetization    =     0.00 Bohr mag/cell

     iteration #  9     ecut=    40.00 Ry     beta= 0.60
     Davidson diagonalization with overlap
     ethr =  1.19E-09,  avg # of iterations =  2.0

     total cpu time spent up to now is        2.5 secs

     total energy              =    -403.77790615 Ry
     estimated scf accuracy    <       0.00000001 Ry

     total magnetization       =     0.00 Bohr mag/cell
     absolute magnetization    =     0.00 Bohr mag/cell

     iteration # 10     ecut=    40.00 Ry     beta= 0.60
     Davidson diagonalization with overlap
     ethr =  6.13E-11,  avg # of iterations =  2.0

     total cpu time spent up to now is        2.5 secs

     total energy              =    -403.77790615 Ry
     estimated scf accuracy    <          1.3E-09 Ry

     total magnetization       =     0.00 Bohr mag/cell
     absolute magnetization    =     0.00 Bohr mag/cell

     iteration # 11     ecut=    40.00 Ry     beta= 0.60
     Davidson diagonalization with overlap
     ethr =  6.82E-12,  avg # of iterations =  2.0

     total cpu time spent up to now is        2.6 secs

     total energy              =    -403.77790615 Ry
     estimated scf accuracy    <          2.9E-10 Ry

     total magnetization       =     0.00 Bohr mag/cell
     absolute magnetization    =     0.00 Bohr mag/cell

     iteration # 12     ecut=    40.00 Ry     beta= 0.60
     Davidson diagonalization with overlap
     ethr =  1.52E-12,  avg # of iterations =  3.0

     total cpu time spent up to now is        2.6 secs

     total energy              =    -403.77790615 Ry
     estimated scf accuracy    <          9.5E-09 Ry

     total magnetization       =     0.00 Bohr mag/cell
     absolute magnetization    =     0.00 Bohr mag/cell

     iteration # 13     ecut=    40.00 Ry     beta= 0.60
     Davidson diagonalization with overlap
     ethr =  1.52E-12,  avg # of iterations =  3.0

     total cpu time spent up to now is        2.6 secs

     total energy              =    -403.77790615 Ry
     estimated scf accuracy    <          4.8E-10 Ry

     total magnetization       =     0.00 Bohr mag/cell
     absolute magnetization    =     0.00 Bohr mag/cell

     iteration # 14     ecut=    40.00 Ry     beta= 0.60
     Davidson diagonalization with overlap
     ethr =  1.52E-12,  avg # of iterations =  1.3

     total cpu time spent up to now is        2.7 secs

     total energy              =    -403.77790615 Ry
     estimated scf accuracy    <          1.5E-10 Ry

     total magnetization       =     0.00 Bohr mag/cell
     absolute magnetization    =     0.00 Bohr mag/cell

     iteration # 15     ecut=    40.00 Ry     beta= 0.60
     Davidson diagonalization with overlap
     ethr =  8.10E-13,  avg # of iterations =  2.0

     total cpu time spent up to now is        2.7 secs

     total energy              =    -403.77790615 Ry
     estimated scf accuracy    <          8.2E-10 Ry

     total magnetization       =     0.00 Bohr mag/cell
     absolute magnetization    =     0.00 Bohr mag/cell

     iteration # 16     ecut=    40.00 Ry     beta= 0.60
     Davidson diagonalization with overlap
     ethr =  8.10E-13,  avg # of iterations =  2.0
 
     Magnetic moment per site  (integrated on atomic sphere of radius R)
     atom   1 (R=0.413)  charge= 17.8309  magn= -0.0000

     total cpu time spent up to now is        2.7 secs

     End of self-consistent calculation

 ------ SPIN UP ------------


          k = 0.0883 0.0883 0.0883 (   335 PWs)   bands (ev):

   -96.9336 -54.2877 -54.2756 -54.2756   6.8421  12.5129  12.7113  12.7113
    13.3880  13.3880  34.0070  38.4014  39.0854  39.0854

          k = 0.2648 0.2648-0.0883 (   348 PWs)   bands (ev):

   -96.9267 -54.3345 -54.2942 -54.2822   9.4356  12.2325  12.6598  12.8908
    13.3638  14.0534  26.1673  31.4407  38.5918  39.0944

          k =-0.2648-0.2648 0.4414 (   350 PWs)   bands (ev):

   -96.9226 -54.3646 -54.2967 -54.2915  10.8367  12.3879  12.7662  12.9378
    13.9865  15.6470  19.8226  32.6581  34.3789  35.8982

          k =-0.0883-0.0883 0.2648 (   344 PWs)   bands (ev):

   -96.9295 -54.3127 -54.2850 -54.2834   8.2356  12.2029  12.8217  12.9335
    13.3004  13.6124  30.1323  34.6041  35.9568  38.3262

          k = 0.4414 0.0883 0.0883 (   342 PWs)   bands (ev):

   -96.9238 -54.3411 -54.3008 -54.2982  10.3300  11.7341  12.7853  13.3521
    13.8976  14.1498  27.2106  30.3831  31.0842  34.7087

          k =-0.0883-0.4414 0.6179 (   353 PWs)   bands (ev):

   -96.9198 -54.3492 -54.3271 -54.3055  11.4801  11.7426  12.5109  13.4404
    14.0014  18.7731  21.7414  25.0648  27.2577  38.3782

          k = 0.0883-0.2648 0.4414 (   350 PWs)   bands (ev):

   -96.9227 -54.3495 -54.3099 -54.2933  11.0070  12.0401  12.3466  13.1483
    13.7497  15.3820  23.3358  28.7071  31.5681  38.9623

          k =-0.6179 0.0883 0.0883 (   352 PWs)   bands (ev):

   -96.9198 -54.3592 -54.3148 -54.3075  10.9637  11.4058  13.4916  13.7578
    14.0571  16.7851  24.0631  25.5266  29.0977  33.9754

          k = 0.2648 0.2648 0.2648 (   353 PWs)   bands (ev):

   -96.9250 -54.3563 -54.2861 -54.2861  10.1075  12.6519  12.6519  12.9774
    13.8162  13.8162  22.2416  36.7556  37.2456  37.2456

          k =-0.2648-0.2648 0.7944 (   358 PWs)   bands (ev):

   -96.9210 -54.3518 -54.3227 -54.2954  11.4649  11.9696  12.4653  13.1421
    13.7959  17.5967  20.6324  26.2532  32.8473  35.4160

 ------ SPIN DOWN ----------


          k = 0.0883 0.0883 0.0883 (   335 PWs)   bands (ev):

   -96.9336 -54.2877 -54.2756 -54.2756   6.8421  12.5129  12.7113  12.7113
    13.3880  13.3880  34.0070  38.4014  39.0854  39.0854

          k = 0.2648 0.2648-0.0883 (   348 PWs)   bands (ev):

   -96.9267 -54.3345 -54.2942 -54.2822   9.4356  12.2325  12.6598  12.8908
    13.3638  14.0534  26.1673  31.4407  38.5918  39.0944

          k =-0.2648-0.2648 0.4414 (   350 PWs)   bands (ev):

   -96.9226 -54.3646 -54.2967 -54.2915  10.8367  12.3879  12.7662  12.9378
    13.9865  15.6470  19.8226  32.6581  34.3789  35.8982

          k =-0.0883-0.0883 0.2648 (   344 PWs)   bands (ev):

   -96.9295 -54.3127 -54.2850 -54.2834   8.2356  12.2029  12.8217  12.9335
    13.3004  13.6124  30.1323  34.6041  35.9568  38.3262

          k = 0.4414 0.0883 0.0883 (   342 PWs)   bands (ev):

   -96.9238 -54.3411 -54.3008 -54.2982  10.3300  11.7341  12.7853  13.3521
    13.8976  14.1498  27.2106  30.3831  31.0842  34.7087

          k =-0.0883-0.4414 0.6179 (   353 PWs)   bands (ev):

   -96.9198 -54.3492 -54.3271 -54.3055  11.4801  11.7426  12.5109  13.4404
    14.0014  18.7731  21.7414  25.0648  27.2577  38.3782

          k = 0.0883-0.2648 0.4414 (   350 PWs)   bands (ev):

   -96.9227 -54.3495 -54.3099 -54.2933  11.0070  12.0401  12.3466  13.1483
    13.7497  15.3820  23.3358  28.7071  31.5681  38.9623

          k =-0.6179 0.0883 0.0883 (   352 PWs)   bands (ev):

   -96.9198 -54.3592 -54.3148 -54.3075  10.9637  11.4058  13.4916  13.7578
    14.0571  16.7851  24.0631  25.5266  29.0977  33.9754

          k = 0.2648 0.2648 0.2648 (   353 PWs)   bands (ev):

   -96.9250 -54.3563 -54.2861 -54.2861  10.1075  12.6519  12.6519  12.9774
    13.8162  13.8162  22.2416  36.7556  37.2456  37.2456

          k =-0.2648-0.2648 0.7944 (   358 PWs)   bands (ev):

   -96.9210 -54.3518 -54.3227 -54.2954  11.4649  11.9696  12.4653  13.1421
    13.7959  17.5967  20.6324  26.2532  32.8473  35.4160

     the Fermi energy is    15.4446 ev

!    total energy              =    -403.77790615 Ry
     estimated scf accuracy    <          5.5E-11 Ry
     smearing contrib. (-TS)   =      -0.00014760 Ry
     internal energy E=F+TS    =    -403.77775855 Ry

     The total energy is F=E-TS. E is the sum of the following terms:
     one-electron contribution =    -272.22990975 Ry
     hartree contribution      =     147.27249446 Ry
     xc contribution           =     -38.80753842 Ry
     ewald contribution        =    -240.01280484 Ry

     total magnetization       =     0.00 Bohr mag/cell
     absolute magnetization    =     0.00 Bohr mag/cell

     convergence has been achieved in  16 iterations

     Forces acting on atoms (cartesian axes, Ry/au):

     atom    1 type  1   force =     0.00000000    0.00000000    0.00000000
     The non-local contrib.  to forces
     atom    1 type  1   force =    -0.00000000    0.00000000    0.00000000
     The ionic contribution  to forces
     atom    1 type  1   force =     0.00000000    0.00000000    0.00000000
     The local contribution  to forces
     atom    1 type  1   force =     0.00000000    0.00000000    0.00000000
     The core correction contribution to forces
     atom    1 type  1   force =     0.00000000    0.00000000    0.00000000
     The Hubbard contrib.    to forces
     atom    1 type  1   force =     0.00000000    0.00000000    0.00000000
     The SCF correction term to forces
     atom    1 type  1   force =    -0.00000000   -0.00000000    0.00000000

     Total force =     0.000000     Total SCF correction =     0.000000


     Computing stress (Cartesian axis) and pressure

          total   stress  (Ry/bohr**3)                   (kbar)     P=       -1.62
  -0.00001100   0.00000000   0.00000000           -1.62        0.00        0.00
   0.00000000  -0.00001100  -0.00000000            0.00       -1.62       -0.00
   0.00000000  -0.00000000  -0.00001100            0.00       -0.00       -1.62

     Energy error            =      4.0E-07 Ry
     Gradient error          =      0.0E+00 Ry/Bohr
     Cell gradient error     =      1.6E+00 kbar

     number of scf cycles    =   4
     number of bfgs steps    =   2

     enthalpy           old  =    -403.7779065503 Ry
     enthalpy           new  =    -403.7779061530 Ry

     CASE: enthalpy          _new > enthalpy          _old

     new trust radius        =       0.0000315601 bohr

     trust_radius < trust_radius_min

     resetting bfgs history

     Message from routine bfgs:
     history already reset at previous step: stopping
     new conv_thr            =            1.0E-10 Ry

     new unit-cell volume =     81.98553 a.u.^3 (    12.14900 Ang^3 )
     density =      8.68554 g/cm^3

CELL_PARAMETERS (angstrom)
  -0.000000000   1.824610640   1.824610640
   1.824610640  -0.000000000   1.824610640
   1.824610640   1.824610640  -0.000000000

ATOMIC_POSITIONS (angstrom)
Cu            0.0000000000        0.0000000000        0.0000000000



     Writing config-only to output data dir ./output/opt.save/
     NEW-OLD atomic charge density approx. for the potential

     Check: negative core charge=   -0.000001
     Generating pointlists ...

     total cpu time spent up to now is        2.8 secs

     Self-consistent Calculation

     iteration #  1     ecut=    40.00 Ry     beta= 0.60
     Davidson diagonalization with overlap
     ethr =  1.00E-06,  avg # of iterations =  1.0

     Threshold (ethr) on eigenvalues was too large:
     Diagonalizing with lowered threshold

     Davidson diagonalization with overlap
     ethr =  4.55E-12,  avg # of iterations =  1.0

     total cpu time spent up to now is        2.9 secs

     total energy              =    -403.77790615 Ry
     estimated scf accuracy    <          8.9E-10 Ry

     total magnetization       =     0.00 Bohr mag/cell
     absolute magnetization    =     0.00 Bohr mag/cell

     iteration #  2     ecut=    40.00 Ry     beta= 0.60
     Davidson diagonalization with overlap
     ethr =  4.67E-12,  avg # of iterations =  2.5

     total cpu time spent up to now is        2.9 secs

     total energy              =    -403.77790615 Ry
     estimated scf accuracy    <          3.4E-09 Ry

     total magnetization       =    -0.00 Bohr mag/cell
     absolute magnetization    =     0.00 Bohr mag/cell

     iteration #  3     ecut=    40.00 Ry     beta= 0.60
     Davidson diagonalization with overlap
     ethr =  4.67E-12,  avg # of iterations =  2.0
 
     Magnetic moment per site  (integrated on atomic sphere of radius R)
     atom   1 (R=0.413)  charge= 17.8309  magn= -0.0000

     total cpu time spent up to now is        2.9 secs

     End of self-consistent calculation

 ------ SPIN UP ------------


          k = 0.0883 0.0883 0.0883 (   335 PWs)   bands (ev):

   -96.9335 -54.2877 -54.2756 -54.2756   6.8421  12.5129  12.7113  12.7113
    13.3880  13.3880  34.0070  38.4014  39.0855  39.0855

          k = 0.2648 0.2648-0.0883 (   348 PWs)   bands (ev):

   -96.9267 -54.3345 -54.2942 -54.2822   9.4356  12.2325  12.6598  12.8909
    13.3638  14.0534  26.1673  31.4407  38.5918  39.0944

          k =-0.2648-0.2648 0.4414 (   350 PWs)   bands (ev):

   -96.9226 -54.3646 -54.2967 -54.2915  10.8368  12.3879  12.7662  12.9378
    13.9865  15.6470  19.8226  32.6581  34.3789  35.8982

          k =-0.0883-0.0883 0.2648 (   344 PWs)   bands (ev):

   -96.9295 -54.3127 -54.2849 -54.2834   8.2356  12.2029  12.8217  12.9335
    13.3004  13.6124  30.1324  34.6041  35.9568  38.3262

          k = 0.4414 0.0883 0.0883 (   342 PWs)   bands (ev):

   -96.9238 -54.3411 -54.3008 -54.2981  10.3300  11.7342  12.7853  13.3522
    13.8976  14.1498  27.2106  30.3831  31.0842  34.7087

          k =-0.0883-0.4414 0.6179 (   353 PWs)   bands (ev):

   -96.9198 -54.3492 -54.3271 -54.3055  11.4801  11.7426  12.5110  13.4404
    14.0014  18.7731  21.7414  25.0648  27.2577  38.3782

          k = 0.0883-0.2648 0.4414 (   350 PWs)   bands (ev):

   -96.9226 -54.3495 -54.3098 -54.2932  11.0070  12.0401  12.3466  13.1483
    13.7498  15.3821  23.3358  28.7071  31.5681  38.9623

          k =-0.6179 0.0883 0.0883 (   352 PWs)   bands (ev):

   -96.9198 -54.3592 -54.3148 -54.3075  10.9637  11.4058  13.4916  13.7579
    14.0572  16.7851  24.0631  25.5266  29.0978  33.9754

          k = 0.2648 0.2648 0.2648 (   353 PWs)   bands (ev):

   -96.9250 -54.3563 -54.2860 -54.2860  10.1075  12.6519  12.6519  12.9774
    13.8162  13.8162  22.2416  36.7556  37.2456  37.2456

          k =-0.2648-0.2648 0.7944 (   358 PWs)   bands (ev):

   -96.9210 -54.3518 -54.3227 -54.2954  11.4649  11.9697  12.4653  13.1421
    13.7959  17.5968  20.6324  26.2532  32.8473  35.4160

 ------ SPIN DOWN ----------


          k = 0.0883 0.0883 0.0883 (   335 PWs)   bands (ev):

   -96.9335 -54.2877 -54.2756 -54.2756   6.8421  12.5129  12.7113  12.7113
    13.3880  13.3880  34.0070  38.4014  39.0855  39.0855

          k = 0.2648 0.2648-0.0883 (   348 PWs)   bands (ev):

   -96.9267 -54.3345 -54.2942 -54.2822   9.4356  12.2325  12.6598  12.8909
    13.3638  14.0534  26.1673  31.4407  38.5918  39.0944

          k =-0.2648-0.2648 0.4414 (   350 PWs)   bands (ev):

   -96.9226 -54.3646 -54.2967 -54.2915  10.8368  12.3879  12.7662  12.9378
    13.9865  15.6470  19.8226  32.6581  34.3789  35.8982

          k =-0.0883-0.0883 0.2648 (   344 PWs)   bands (ev):

   -96.9295 -54.3127 -54.2849 -54.2834   8.2356  12.2029  12.8217  12.9335
    13.3004  13.6124  30.1324  34.6041  35.9568  38.3262

          k = 0.4414 0.0883 0.0883 (   342 PWs)   bands (ev):

   -96.9238 -54.3411 -54.3008 -54.2981  10.3300  11.7342  12.7853  13.3522
    13.8976  14.1498  27.2106  30.3831  31.0842  34.7087

          k =-0.0883-0.4414 0.6179 (   353 PWs)   bands (ev):

   -96.9198 -54.3492 -54.3271 -54.3055  11.4801  11.7426  12.5110  13.4404
    14.0014  18.7731  21.7414  25.0648  27.2577  38.3782

          k = 0.0883-0.2648 0.4414 (   350 PWs)   bands (ev):

   -96.9226 -54.3495 -54.3098 -54.2932  11.0070  12.0401  12.3466  13.1483
    13.7498  15.3821  23.3358  28.7071  31.5681  38.9623

          k =-0.6179 0.0883 0.0883 (   352 PWs)   bands (ev):

   -96.9198 -54.3592 -54.3148 -54.3075  10.9637  11.4058  13.4916  13.7579
    14.0572  16.7851  24.0631  25.5266  29.0978  33.9754

          k = 0.2648 0.2648 0.2648 (   353 PWs)   bands (ev):

   -96.9250 -54.3563 -54.2860 -54.2860  10.1075  12.6519  12.6519  12.9774
    13.8162  13.8162  22.2416  36.7556  37.2456  37.2456

          k =-0.2648-0.2648 0.7944 (   358 PWs)   bands (ev):

   -96.9210 -54.3518 -54.3227 -54.2954  11.4649  11.9697  12.4653  13.1421
    13.7959  17.5968  20.6324  26.2532  32.8473  35.4160

     the Fermi energy is    15.4447 ev

!    total energy              =    -403.77790615 Ry
     estimated scf accuracy    <          2.1E-12 Ry
     smearing contrib. (-TS)   =      -0.00014759 Ry
     internal energy E=F+TS    =    -403.77775856 Ry

     The total energy is F=E-TS. E is the sum of the following terms:
     one-electron contribution =    -272.22981228 Ry
     hartree contribution      =     147.27238438 Ry
     xc contribution           =     -38.80752626 Ry
     ewald contribution        =    -240.01280440 Ry

     total magnetization       =    -0.00 Bohr mag/cell
     absolute magnetization    =     0.00 Bohr mag/cell

     convergence has been achieved in   3 iterations

     Forces acting on atoms (cartesian axes, Ry/au):

     atom    1 type  1   force =     0.00000000    0.00000000    0.00000000
     The non-local contrib.  to forces
     atom    1 type  1   force =     0.00000000    0.00000000   -0.00000000
     The ionic contribution  to forces
     atom    1 type  1   force =     0.00000000    0.00000000    0.00000000
     The local contribution  to forces
     atom    1 type  1   force =     0.00000000    0.00000000    0.00000000
     The core correction contribution to forces
     atom    1 type  1   force =    -0.00000000    0.00000000   -0.00000000
     The Hubbard contrib.    to forces
     atom    1 type  1   force =     0.00000000    0.00000000    0.00000000
     The SCF correction term to forces
     atom    1 type  1   force =     0.00000000    0.00000000    0.00000000

     Total force =     0.000000     Total SCF correction =     0.000000


     Computing stress (Cartesian axis) and pressure

          total   stress  (Ry/bohr**3)                   (kbar)     P=       -2.06
  -0.00001400  -0.00000000   0.00000000           -2.06       -0.00        0.00
  -0.00000000  -0.00001400  -0.00000000           -0.00       -2.06       -0.00
   0.00000000   0.00000000  -0.00001400            0.00        0.00       -2.06

     Message from routine bfgs:
     history already reset at previous step: exiting
     Energy error            =      4.0E-07 Ry
     Gradient error          =      0.0E+00 Ry/Bohr
     Cell gradient error     =      2.1E+00 kbar
Begin final coordinates
     new unit-cell volume =     81.98553 a.u.^3 (    12.14900 Ang^3 )
     density =      8.68554 g/cm^3

CELL_PARAMETERS (angstrom)
  -0.000000000   1.824610640   1.824610640
   1.824610640  -0.000000000   1.824610640
   1.824610640   1.824610640  -0.000000000

ATOMIC_POSITIONS (angstrom)
Cu            0.0000000000        0.0000000000        0.0000000000
End final coordinates



     Writing config-only to output data dir ./output/opt.save/

     Writing all to output data dir ./output/opt.save/
 
     init_run     :      0.08s CPU      0.08s WALL (       1 calls)
     electrons    :      2.08s CPU      2.46s WALL (       5 calls)
     update_pot   :      0.10s CPU      0.10s WALL (       4 calls)
     forces       :      0.06s CPU      0.06s WALL (       5 calls)
     stress       :      0.14s CPU      0.14s WALL (       5 calls)

     Called by init_run:
     wfcinit      :      0.01s CPU      0.01s WALL (       1 calls)
     potinit      :      0.01s CPU      0.01s WALL (       1 calls)
     hinit0       :      0.06s CPU      0.06s WALL (       1 calls)

     Called by electrons:
     c_bands      :      1.44s CPU      1.76s WALL (      75 calls)
     sum_band     :      0.38s CPU      0.40s WALL (      75 calls)
     v_of_rho     :      0.16s CPU      0.17s WALL (      78 calls)
     newd         :      0.06s CPU      0.06s WALL (      78 calls)
     mix_rho      :      0.03s CPU      0.03s WALL (      75 calls)

     Called by c_bands:
     init_us_2    :      0.02s CPU      0.02s WALL (    1610 calls)
     init_us_2:cp :      0.02s CPU      0.02s WALL (    1610 calls)
     cegterg      :      1.27s CPU      1.37s WALL (     750 calls)

     Called by *egterg:
     cdiaghg      :      0.34s CPU      0.37s WALL (    2107 calls)
     h_psi        :      0.82s CPU      0.88s WALL (    2177 calls)
     s_psi        :      0.01s CPU      0.01s WALL (    2177 calls)
     g_psi        :      0.00s CPU      0.00s WALL (    1417 calls)

     Called by h_psi:
     h_psi:calbec :      0.03s CPU      0.03s WALL (    2177 calls)
     vloc_psi     :      0.76s CPU      0.82s WALL (    2177 calls)
     add_vuspsi   :      0.01s CPU      0.01s WALL (    2177 calls)

     General routines
     calbec       :      0.04s CPU      0.04s WALL (    3177 calls)
     fft          :      0.09s CPU      0.09s WALL (    2148 calls)
     ffts         :      0.01s CPU      0.01s WALL (     306 calls)
     fftw         :      0.79s CPU      0.84s WALL (   60960 calls)
     interpolate  :      0.01s CPU      0.01s WALL (     156 calls)
     davcio       :      0.00s CPU      0.00s WALL (      10 calls)
 
     Parallel routines
 
     PWSCF        :      2.57s CPU      3.03s WALL

 
   This run was terminated on:  13:27:26   4Jun2024            

=------------------------------------------------------------------------------=
   JOB DONE.
=------------------------------------------------------------------------------=
