
     Program BANDS v.7.2 starts on  4Jun2024 at 10: 3:59 

     This program is part of the open-source Quantum ESPRESSO suite
     for quantum simulation of materials; please cite
         "P. Giannozzi et al., J. Phys.:Condens. Matter 21 395502 (2009);
         "P. Giannozzi et al., J. Phys.:Condens. Matter 29 465901 (2017);
         "P. Giannozzi et al., J. Chem. Phys. 152 154105 (2020);
          URL http://www.quantum-espresso.org", 
     in publications or presentations arising from this work. More details at
     http://www.quantum-espresso.org/quote

     Parallel version (MPI), running on    16 processors

     MPI processes distributed on     1 nodes
     R & G space division:  proc/nbgrp/npool/nimage =      16
     179702 MiB available memory on the printing compute node when the environment starts
 

     Reading xml data from directory:

     ./output/opt.save/
     Message from routine  set_nelup_neldw :
     BEWARE: non-integer number of up and down electrons!

     IMPORTANT: XC functional enforced from input :
     Exchange-correlation= PBE
                           (   1   4   3   4   0   0   0)
     Any further DFT definition will be discarded
     Please, verify this is what you really want

 
     Parallelization info
     --------------------
     sticks:   dense  smooth     PW     G-vecs:    dense   smooth      PW
     Min          32      15      5                  488      168      32
     Max          34      16      6                  490      173      35
     Sum         517     253     85                 7823     2741     537
 
     Using Slab Decomposition
 

     Check: negative core charge=   -0.000001
     Reading collected, re-writing distributed wavefunctions
     high-symmetry point:  0.0000 0.0000 0.0000   x coordinate   0.0000
     high-symmetry point:  0.0000 0.7062 0.0000   x coordinate   0.7062
     high-symmetry point:  0.3531 0.7062 0.0000   x coordinate   1.0593
     high-symmetry point:  0.3531 0.3531 0.3531   x coordinate   1.5586
     high-symmetry point:  0.0000 0.0000 0.0000   x coordinate   2.1702
     high-symmetry point:  0.5296 0.5296 0.0000   x coordinate   2.9192

     Plottable bands (eV) written to file upspin.bands.gnu
     Bands written to file upspin.bands

 **************************************************************************

                    xk=(   0.00000,   0.00000,   0.00000  )

     point group O_h (m-3m) 
     there are 10 classes
     the character table:

       E     8C3   3C2   6C4   6C2'  i     8S6   3s_h  6S4   6s_d 
A_1g   1.00  1.00  1.00  1.00  1.00  1.00  1.00  1.00  1.00  1.00
A_2g   1.00  1.00  1.00 -1.00 -1.00  1.00  1.00  1.00 -1.00 -1.00
E_g    2.00 -1.00  2.00  0.00  0.00  2.00 -1.00  2.00  0.00  0.00
T_1g   3.00  0.00 -1.00  1.00 -1.00  3.00  0.00 -1.00  1.00 -1.00
T_2g   3.00  0.00 -1.00 -1.00  1.00  3.00  0.00 -1.00 -1.00  1.00
A_1u   1.00  1.00  1.00  1.00  1.00 -1.00 -1.00 -1.00 -1.00 -1.00
A_2u   1.00  1.00  1.00 -1.00 -1.00 -1.00 -1.00 -1.00  1.00  1.00
E_u    2.00 -1.00  2.00  0.00  0.00 -2.00  1.00 -2.00  0.00  0.00
T_1u   3.00  0.00 -1.00  1.00 -1.00 -3.00  0.00  1.00 -1.00  1.00
T_2u   3.00  0.00 -1.00 -1.00  1.00 -3.00  0.00  1.00  1.00 -1.00

     the symmetry operations in each class and the name of the first element:

     E        1
                                                                 
     8C3     17   19   20   18   24   21   22   23
                                                                 
     3C2      2    4    3
                                                                 
     6C4      7    8   15   16   12   11
                                                                 
     6C2'     5    6   14   13   10    9
                                                                 
     i       25
                                                                 
     8S6     41   43   44   42   48   45   46   47
                                                                 
     3s_h    26   28   27
                                                                 
     6S4     31   32   39   40   36   35
                                                                 
     6s_d    29   30   38   37   34   33
                                                                 

     Band symmetry, O_h (m-3m)  point group:

     e(  1 -  1) =    -96.93527  eV     1   --> A_1g G_1   G_1+
     e(  2 -  4) =    -54.27339  eV     3   --> T_1u G_15  G_4-
     e(  5 -  5) =      6.28866  eV     1   --> A_1g G_1   G_1+
     e(  6 -  8) =     12.62043  eV     3   --> T_2g G_25' G_5+
     e(  9 - 10) =     13.41611  eV     2   --> E_g  G_12  G_3+
     e( 11 - 11) =     37.84691  eV     1   --> A_2u G_2'  G_2-
     e( 12 - 14) =     40.25003  eV     3   --> T_1u G_15  G_4-

 **************************************************************************

 **************************************************************************

                    xk=(   0.00000,   0.03070,   0.00000  )

     point group C_4v (4mm) 
     there are  5 classes
     the character table:

       E     2C4   C2    2s_v  2s_d 
A_1    1.00  1.00  1.00  1.00  1.00
A_2    1.00  1.00  1.00 -1.00 -1.00
B_1    1.00 -1.00  1.00  1.00 -1.00
B_2    1.00 -1.00  1.00 -1.00  1.00
E      2.00  0.00 -2.00  0.00  0.00

     the symmetry operations in each class and the name of the first element:

     E        1
                                                                 
     2C4      3    4
                                                                 
     C2       2
                                                                 
     2s_v     5    6
                                                                 
     2s_d     7    8
                                                                 

     Band symmetry, C_4v (4mm)  point group:

     e(  1 -  1) =    -96.93519  eV     1   --> A_1  G_1 D_1   
     e(  2 -  2) =    -54.27383  eV     1   --> A_1  G_1 D_1   
     e(  3 -  4) =    -54.27356  eV     2   --> E    G_5 D_5   
     e(  5 -  5) =      6.31129  eV     1   --> A_1  G_1 D_1   
     e(  6 -  6) =     12.61376  eV     1   --> B_2  G_4 D_2'  
     e(  7 -  8) =     12.62577  eV     2   --> E    G_5 D_5   
     e(  9 -  9) =     13.41003  eV     1   --> A_1  G_1 D_1   
     e( 10 - 10) =     13.41855  eV     1   --> B_1  G_3 D_2   
     e( 11 - 11) =     37.76087  eV     1   --> B_2  G_4 D_2'  
     e( 12 - 13) =     39.96067  eV     2   --> E    G_5 D_5   
     e( 14 - 14) =     40.15065  eV     1   --> A_1  G_1 D_1   

 **************************************************************************

 **************************************************************************

                    xk=(   0.00000,   0.06141,   0.00000  )

     Band symmetry, C_4v (4mm)  point group:

     e(  1 -  1) =    -96.93497  eV     1   --> A_1  G_1 D_1   
     e(  2 -  2) =    -54.27514  eV     1   --> A_1  G_1 D_1   
     e(  3 -  4) =    -54.27408  eV     2   --> E    G_5 D_5   
     e(  5 -  5) =      6.37901  eV     1   --> A_1  G_1 D_1   
     e(  6 -  6) =     12.59379  eV     1   --> B_2  G_4 D_2'  
     e(  7 -  8) =     12.64163  eV     2   --> E    G_5 D_5   
     e(  9 -  9) =     13.39198  eV     1   --> A_1  G_1 D_1   
     e( 10 - 10) =     13.42583  eV     1   --> B_1  G_3 D_2   
     e( 11 - 11) =     37.52702  eV     1   --> B_2  G_4 D_2'  
     e( 12 - 13) =     39.31791  eV     2   --> E    G_5 D_5   
     e( 14 - 14) =     39.87592  eV     1   --> A_1  G_1 D_1   

 **************************************************************************

 **************************************************************************

                    xk=(   0.00000,   0.09211,   0.00000  )

     Band symmetry, C_4v (4mm)  point group:

     e(  1 -  1) =    -96.93460  eV     1   --> A_1  G_1 D_1   
     e(  2 -  2) =    -54.27730  eV     1   --> A_1  G_1 D_1   
     e(  3 -  4) =    -54.27493  eV     2   --> E    G_5 D_5   
     e(  5 -  5) =      6.49145  eV     1   --> A_1  G_1 D_1   
     e(  6 -  6) =     12.56101  eV     1   --> B_2  G_4 D_2'  
     e(  7 -  8) =     12.66799  eV     2   --> E    G_5 D_5   
     e(  9 -  9) =     13.36251  eV     1   --> A_1  G_1 D_1   
     e( 10 - 10) =     13.43783  eV     1   --> B_1  G_3 D_2   
     e( 11 - 11) =     37.19754  eV     1   --> B_2  G_4 D_2'  
     e( 12 - 13) =     38.55664  eV     2   --> E    G_5 D_5   
     e( 14 - 14) =     39.47772  eV     1   --> A_1  G_1 D_1   

 **************************************************************************

 **************************************************************************

                    xk=(   0.00000,   0.12281,   0.00000  )

     Band symmetry, C_4v (4mm)  point group:

     e(  1 -  1) =    -96.93410  eV     1   --> A_1  G_1 D_1   
     e(  2 -  2) =    -54.28027  eV     1   --> A_1  G_1 D_1   
     e(  3 -  4) =    -54.27610  eV     2   --> E    G_5 D_5   
     e(  5 -  5) =      6.64798  eV     1   --> A_1  G_1 D_1   
     e(  6 -  6) =     12.51613  eV     1   --> B_2  G_4 D_2'  
     e(  7 -  8) =     12.70467  eV     2   --> E    G_5 D_5   
     e(  9 -  9) =     13.32257  eV     1   --> A_1  G_1 D_1   
     e( 10 - 10) =     13.45433  eV     1   --> B_1  G_3 D_2   
     e( 11 - 11) =     36.81988  eV     1   --> B_2  G_4 D_2'  
     e( 12 - 13) =     37.76168  eV     2   --> E    G_5 D_5   
     e( 14 - 14) =     39.00622  eV     1   --> A_1  G_1 D_1   

 **************************************************************************

 **************************************************************************

                    xk=(   0.00000,   0.15352,   0.00000  )

     Band symmetry, C_4v (4mm)  point group:

     e(  1 -  1) =    -96.93347  eV     1   --> A_1  G_1 D_1   
     e(  2 -  2) =    -54.28400  eV     1   --> A_1  G_1 D_1   
     e(  3 -  4) =    -54.27758  eV     2   --> E    G_5 D_5   
     e(  5 -  5) =      6.84757  eV     1   --> A_1  G_1 D_1   
     e(  6 -  6) =     12.46010  eV     1   --> B_2  G_4 D_2'  
     e(  7 -  8) =     12.75141  eV     2   --> E    G_5 D_5   
     e(  9 -  9) =     13.27354  eV     1   --> A_1  G_1 D_1   
     e( 10 - 10) =     13.47506  eV     1   --> B_1  G_3 D_2   
     e( 11 - 11) =     36.42624  eV     1   --> B_2  G_4 D_2'  
     e( 12 - 13) =     36.96334  eV     2   --> E    G_5 D_5   
     e( 14 - 14) =     38.49496  eV     1   --> A_1  G_1 D_1   

 **************************************************************************

 **************************************************************************

                    xk=(   0.00000,   0.18422,   0.00000  )

     Band symmetry, C_4v (4mm)  point group:

     e(  1 -  1) =    -96.93272  eV     1   --> A_1  G_1 D_1   
     e(  2 -  2) =    -54.28838  eV     1   --> A_1  G_1 D_1   
     e(  3 -  4) =    -54.27932  eV     2   --> E    G_5 D_5   
     e(  5 -  5) =      7.08882  eV     1   --> A_1  G_1 D_1   
     e(  6 -  6) =     12.39414  eV     1   --> B_2  G_4 D_2'  
     e(  7 -  8) =     12.80788  eV     2   --> E    G_5 D_5   
     e(  9 -  9) =     13.21739  eV     1   --> A_1  G_1 D_1   
     e( 10 - 10) =     13.49965  eV     1   --> B_1  G_3 D_2   
     e( 11 - 11) =     36.03603  eV     1   --> B_2  G_4 D_2'  
     e( 12 - 13) =     36.17513  eV     2   --> E    G_5 D_5   
     e( 14 - 14) =     37.96222  eV     1   --> A_1  G_1 D_1   

 **************************************************************************

 **************************************************************************

                    xk=(   0.00000,   0.21492,   0.00000  )

     Band symmetry, C_4v (4mm)  point group:

     e(  1 -  1) =    -96.93187  eV     1   --> A_1  G_1 D_1   
     e(  2 -  2) =    -54.29335  eV     1   --> A_1  G_1 D_1   
     e(  3 -  4) =    -54.28130  eV     2   --> E    G_5 D_5   
     e(  5 -  5) =      7.36975  eV     1   --> A_1  G_1 D_1   
     e(  6 -  6) =     12.31959  eV     1   --> B_2  G_4 D_2'  
     e(  7 -  8) =     12.87356  eV     2   --> E    G_5 D_5   
     e(  9 -  9) =     13.15676  eV     1   --> A_1  G_1 D_1   
     e( 10 - 10) =     13.52765  eV     1   --> B_1  G_3 D_2   
     e( 11 - 12) =     35.40379  eV     2   --> E    G_5 D_5   
     e( 13 - 13) =     35.66019  eV     1   --> B_2  G_4 D_2'  
     e( 14 - 14) =     37.40616  eV     1   --> A_1  G_1 D_1   

 **************************************************************************

 **************************************************************************

                    xk=(   0.00000,   0.24562,   0.00000  )

     Band symmetry, C_4v (4mm)  point group:

     e(  1 -  1) =    -96.93093  eV     1   --> A_1  G_1 D_1   
     e(  2 -  2) =    -54.29879  eV     1   --> A_1  G_1 D_1   
     e(  3 -  4) =    -54.28348  eV     2   --> E    G_5 D_5   
     e(  5 -  5) =      7.68765  eV     1   --> A_1  G_1 D_1   
     e(  6 -  6) =     12.23803  eV     1   --> B_2  G_4 D_2'  
     e(  7 -  8) =     12.94792  eV     2   --> E    G_5 D_5   
     e(  9 -  9) =     13.09517  eV     1   --> A_1  G_1 D_1   
     e( 10 - 10) =     13.55857  eV     1   --> B_1  G_3 D_2   
     e( 11 - 12) =     34.65536  eV     2   --> E    G_5 D_5   
     e( 13 - 13) =     35.30552  eV     1   --> B_2  G_4 D_2'  
     e( 14 - 14) =     36.80271  eV     1   --> A_1  G_1 D_1   

 **************************************************************************

 **************************************************************************

                    xk=(   0.00000,   0.27633,   0.00000  )

     Band symmetry, C_4v (4mm)  point group:

     e(  1 -  1) =    -96.92992  eV     1   --> A_1  G_1 D_1   
     e(  2 -  2) =    -54.30462  eV     1   --> A_1  G_1 D_1   
     e(  3 -  4) =    -54.28582  eV     2   --> E    G_5 D_5   
     e(  5 -  5) =      8.03849  eV     1   --> A_1  G_1 D_1   
     e(  6 -  6) =     12.15109  eV     1   --> B_2  G_4 D_2'  
     e(  7 -  8) =     13.03021  eV     2   --> E    G_5 D_5   
     e(  9 -  9) =     13.03737  eV     1   --> A_1  G_1 D_1   
     e( 10 - 10) =     13.59187  eV     1   --> B_1  G_3 D_2   
     e( 11 - 12) =     33.93312  eV     2   --> E    G_5 D_5   
     e( 13 - 13) =     34.97516  eV     1   --> B_2  G_4 D_2'  
     e( 14 - 14) =     36.09724  eV     1   --> A_1  G_1 D_1   

 **************************************************************************

 **************************************************************************

                    xk=(   0.00000,   0.30703,   0.00000  )

     Band symmetry, C_4v (4mm)  point group:

     e(  1 -  1) =    -96.92886  eV     1   --> A_1  G_1 D_1   
     e(  2 -  2) =    -54.31072  eV     1   --> A_1  G_1 D_1   
     e(  3 -  4) =    -54.28828  eV     2   --> E    G_5 D_5   
     e(  5 -  5) =      8.41663  eV     1   --> A_1  G_1 D_1   
     e(  6 -  6) =     12.06051  eV     1   --> B_2  G_4 D_2'  
     e(  7 -  7) =     12.98994  eV     1   --> A_1  G_1 D_1   
     e(  8 -  9) =     13.11950  eV     2   --> E    G_5 D_5   
     e( 10 - 10) =     13.62693  eV     1   --> B_1  G_3 D_2   
     e( 11 - 12) =     33.24019  eV     2   --> E    G_5 D_5   
     e( 13 - 13) =     34.67074  eV     1   --> B_2  G_4 D_2'  
     e( 14 - 14) =     35.22209  eV     1   --> A_1  G_1 D_1   

 **************************************************************************

 **************************************************************************

                    xk=(   0.00000,   0.33773,   0.00000  )

     Band symmetry, C_4v (4mm)  point group:

     e(  1 -  1) =    -96.92777  eV     1   --> A_1  G_1 D_1   
     e(  2 -  2) =    -54.31698  eV     1   --> A_1  G_1 D_1   
     e(  3 -  4) =    -54.29080  eV     2   --> E    G_5 D_5   
     e(  5 -  5) =      8.81371  eV     1   --> A_1  G_1 D_1   
     e(  6 -  6) =     11.96803  eV     1   --> B_2  G_4 D_2'  
     e(  7 -  7) =     12.96208  eV     1   --> A_1  G_1 D_1   
     e(  8 -  9) =     13.21466  eV     2   --> E    G_5 D_5   
     e( 10 - 10) =     13.66312  eV     1   --> B_1  G_3 D_2   
     e( 11 - 12) =     32.57959  eV     2   --> E    G_5 D_5   
     e( 13 - 13) =     34.16728  eV     1   --> A_1  G_1 D_1   
     e( 14 - 14) =     34.39280  eV     1   --> B_2  G_4 D_2'  

 **************************************************************************

 **************************************************************************

                    xk=(   0.00000,   0.36844,   0.00000  )

     Band symmetry, C_4v (4mm)  point group:

     e(  1 -  1) =    -96.92667  eV     1   --> A_1  G_1 D_1   
     e(  2 -  2) =    -54.32327  eV     1   --> A_1  G_1 D_1   
     e(  3 -  4) =    -54.29336  eV     2   --> E    G_5 D_5   
     e(  5 -  5) =      9.21743  eV     1   --> A_1  G_1 D_1   
     e(  6 -  6) =     11.87543  eV     1   --> B_2  G_4 D_2'  
     e(  7 -  7) =     12.96686  eV     1   --> A_1  G_1 D_1   
     e(  8 -  9) =     13.31434  eV     2   --> E    G_5 D_5   
     e( 10 - 10) =     13.69976  eV     1   --> B_1  G_3 D_2   
     e( 11 - 12) =     31.95432  eV     2   --> E    G_5 D_5   
     e( 13 - 13) =     32.99546  eV     1   --> A_1  G_1 D_1   
     e( 14 - 14) =     34.14133  eV     1   --> B_2  G_4 D_2'  

 **************************************************************************

 **************************************************************************

                    xk=(   0.00000,   0.39914,   0.00000  )

     Band symmetry, C_4v (4mm)  point group:

     e(  1 -  1) =    -96.92558  eV     1   --> A_1  G_1 D_1   
     e(  2 -  2) =    -54.32949  eV     1   --> A_1  G_1 D_1   
     e(  3 -  4) =    -54.29588  eV     2   --> E    G_5 D_5   
     e(  5 -  5) =      9.60963  eV     1   --> A_1  G_1 D_1   
     e(  6 -  6) =     11.78440  eV     1   --> B_2  G_4 D_2'  
     e(  7 -  7) =     13.02261  eV     1   --> A_1  G_1 D_1   
     e(  8 -  9) =     13.41695  eV     2   --> E    G_5 D_5   
     e( 10 - 10) =     13.73619  eV     1   --> B_1  G_3 D_2   
     e( 11 - 12) =     31.36730  eV     2   --> E    G_5 D_5   
     e( 13 - 13) =     31.77269  eV     1   --> A_1  G_1 D_1   
     e( 14 - 14) =     33.91564  eV     1   --> B_2  G_4 D_2'  

 **************************************************************************

 **************************************************************************

                    xk=(   0.00000,   0.42984,   0.00000  )

     Band symmetry, C_4v (4mm)  point group:

     e(  1 -  1) =    -96.92452  eV     1   --> A_1  G_1 D_1   
     e(  2 -  2) =    -54.33552  eV     1   --> A_1  G_1 D_1   
     e(  3 -  4) =    -54.29834  eV     2   --> E    G_5 D_5   
     e(  5 -  5) =      9.96674  eV     1   --> A_1  G_1 D_1   
     e(  6 -  6) =     11.69661  eV     1   --> B_2  G_4 D_2'  
     e(  7 -  7) =     13.15290  eV     1   --> A_1  G_1 D_1   
     e(  8 -  9) =     13.52064  eV     2   --> E    G_5 D_5   
     e( 10 - 10) =     13.77170  eV     1   --> B_1  G_3 D_2   
     e( 11 - 11) =     30.54020  eV     1   --> A_1  G_1 D_1   
     e( 12 - 13) =     30.82166  eV     2   --> E    G_5 D_5   
     e( 14 - 14) =     33.71505  eV     1   --> B_2  G_4 D_2'  

 **************************************************************************

 **************************************************************************

                    xk=(   0.00000,   0.46055,   0.00000  )

     Band symmetry, C_4v (4mm)  point group:

     e(  1 -  1) =    -96.92351  eV     1   --> A_1  G_1 D_1   
     e(  2 -  2) =    -54.34123  eV     1   --> A_1  G_1 D_1   
     e(  3 -  4) =    -54.30068  eV     2   --> E    G_5 D_5   
     e(  5 -  5) =     10.26404  eV     1   --> A_1  G_1 D_1   
     e(  6 -  6) =     11.61360  eV     1   --> B_2  G_4 D_2'  
     e(  7 -  7) =     13.38180  eV     1   --> A_1  G_1 D_1   
     e(  8 -  9) =     13.62333  eV     2   --> E    G_5 D_5   
     e( 10 - 10) =     13.80564  eV     1   --> B_1  G_3 D_2   
     e( 11 - 11) =     29.32203  eV     1   --> A_1  G_1 D_1   
     e( 12 - 13) =     30.32066  eV     2   --> E    G_5 D_5   
     e( 14 - 14) =     33.53869  eV     1   --> B_2  G_4 D_2'  

 **************************************************************************

 **************************************************************************

                    xk=(   0.00000,   0.49125,   0.00000  )

     Band symmetry, C_4v (4mm)  point group:

     e(  1 -  1) =    -96.92258  eV     1   --> A_1  G_1 D_1   
     e(  2 -  2) =    -54.34656  eV     1   --> A_1  G_1 D_1   
     e(  3 -  4) =    -54.30287  eV     2   --> E    G_5 D_5   
     e(  5 -  5) =     10.48486  eV     1   --> A_1  G_1 D_1   
     e(  6 -  6) =     11.53677  eV     1   --> B_2  G_4 D_2'  
     e(  7 -  8) =     13.72267  eV     2   --> E    G_5 D_5   
     e(  9 -  9) =     13.72308  eV     1   --> A_1  G_1 D_1   
     e( 10 - 10) =     13.83734  eV     1   --> B_1  G_3 D_2   
     e( 11 - 11) =     28.13169  eV     1   --> A_1  G_1 D_1   
     e( 12 - 13) =     29.86733  eV     2   --> E    G_5 D_5   
     e( 14 - 14) =     33.38508  eV     1   --> B_2  G_4 D_2'  

 **************************************************************************

 **************************************************************************

                    xk=(   0.00000,   0.52195,   0.00000  )

     Band symmetry, C_4v (4mm)  point group:

     e(  1 -  1) =    -96.92172  eV     1   --> A_1  G_1 D_1   
     e(  2 -  2) =    -54.35137  eV     1   --> A_1  G_1 D_1   
     e(  3 -  4) =    -54.30485  eV     2   --> E    G_5 D_5   
     e(  5 -  5) =     10.63103  eV     1   --> A_1  G_1 D_1   
     e(  6 -  6) =     11.46748  eV     1   --> B_2  G_4 D_2'  
     e(  7 -  8) =     13.81619  eV     2   --> E    G_5 D_5   
     e(  9 -  9) =     13.86621  eV     1   --> B_1  G_3 D_2   
     e( 10 - 10) =     14.17092  eV     1   --> A_1  G_1 D_1   
     e( 11 - 11) =     26.98303  eV     1   --> A_1  G_1 D_1   
     e( 12 - 13) =     29.46548  eV     2   --> E    G_5 D_5   
     e( 14 - 14) =     33.25449  eV     1   --> B_2  G_4 D_2'  

 **************************************************************************

 **************************************************************************

                    xk=(   0.00000,   0.55266,   0.00000  )

     Band symmetry, C_4v (4mm)  point group:

     e(  1 -  1) =    -96.92096  eV     1   --> A_1  G_1 D_1   
     e(  2 -  2) =    -54.35558  eV     1   --> A_1  G_1 D_1   
     e(  3 -  4) =    -54.30658  eV     2   --> E    G_5 D_5   
     e(  5 -  5) =     10.71796  eV     1   --> A_1  G_1 D_1   
     e(  6 -  6) =     11.40700  eV     1   --> B_2  G_4 D_2'  
     e(  7 -  7) =     13.89166  eV     1   --> B_1  G_3 D_2   
     e(  8 -  9) =     13.90129  eV     2   --> E    G_5 D_5   
     e( 10 - 10) =     14.70192  eV     1   --> A_1  G_1 D_1   
     e( 11 - 11) =     25.88897  eV     1   --> A_1  G_1 D_1   
     e( 12 - 13) =     29.11826  eV     2   --> E    G_5 D_5   
     e( 14 - 14) =     33.14689  eV     1   --> B_2  G_4 D_2'  

 **************************************************************************

 **************************************************************************

                    xk=(   0.00000,   0.58336,   0.00000  )

     Band symmetry, C_4v (4mm)  point group:

     e(  1 -  1) =    -96.92034  eV     1   --> A_1  G_1 D_1   
     e(  2 -  2) =    -54.35916  eV     1   --> A_1  G_1 D_1   
     e(  3 -  4) =    -54.30805  eV     2   --> E    G_5 D_5   
     e(  5 -  5) =     10.76442  eV     1   --> A_1  G_1 D_1   
     e(  6 -  6) =     11.35599  eV     1   --> B_2  G_4 D_2'  
     e(  7 -  7) =     13.91321  eV     1   --> B_1  G_3 D_2   
     e(  8 -  9) =     13.97537  eV     2   --> E    G_5 D_5   
     e( 10 - 10) =     15.28252  eV     1   --> A_1  G_1 D_1   
     e( 11 - 11) =     24.86653  eV     1   --> A_1  G_1 D_1   
     e( 12 - 13) =     28.82878  eV     2   --> E    G_5 D_5   
     e( 14 - 14) =     33.05880  eV     1   --> B_2  G_4 D_2'  

 **************************************************************************

 **************************************************************************

                    xk=(   0.00000,   0.61406,   0.00000  )

     Band symmetry, C_4v (4mm)  point group:

     e(  1 -  1) =    -96.91982  eV     1   --> A_1  G_1 D_1   
     e(  2 -  2) =    -54.36198  eV     1   --> A_1  G_1 D_1   
     e(  3 -  4) =    -54.30921  eV     2   --> E    G_5 D_5   
     e(  5 -  5) =     10.78675  eV     1   --> A_1  G_1 D_1   
     e(  6 -  6) =     11.31557  eV     1   --> B_2  G_4 D_2'  
     e(  7 -  7) =     13.93044  eV     1   --> B_1  G_3 D_2   
     e(  8 -  9) =     14.03599  eV     2   --> E    G_5 D_5   
     e( 10 - 10) =     15.87068  eV     1   --> A_1  G_1 D_1   
     e( 11 - 11) =     23.94727  eV     1   --> A_1  G_1 D_1   
     e( 12 - 13) =     28.60012  eV     2   --> E    G_5 D_5   
     e( 14 - 14) =     32.99202  eV     1   --> B_2  G_4 D_2'  

 **************************************************************************

 **************************************************************************

                    xk=(   0.00000,   0.64477,   0.00000  )

     Band symmetry, C_4v (4mm)  point group:

     e(  1 -  1) =    -96.91945  eV     1   --> A_1  G_1 D_1   
     e(  2 -  2) =    -54.36403  eV     1   --> A_1  G_1 D_1   
     e(  3 -  4) =    -54.31007  eV     2   --> E    G_5 D_5   
     e(  5 -  5) =     10.79589  eV     1   --> A_1  G_1 D_1   
     e(  6 -  6) =     11.28616  eV     1   --> B_2  G_4 D_2'  
     e(  7 -  7) =     13.94299  eV     1   --> B_1  G_3 D_2   
     e(  8 -  9) =     14.08099  eV     2   --> E    G_5 D_5   
     e( 10 - 10) =     16.40749  eV     1   --> A_1  G_1 D_1   
     e( 11 - 11) =     23.17939  eV     1   --> A_1  G_1 D_1   
     e( 12 - 13) =     28.43479  eV     2   --> E    G_5 D_5   
     e( 14 - 14) =     32.94401  eV     1   --> B_2  G_4 D_2'  

 **************************************************************************

 **************************************************************************

                    xk=(   0.00000,   0.67547,   0.00000  )

     Band symmetry, C_4v (4mm)  point group:

     e(  1 -  1) =    -96.91922  eV     1   --> A_1  G_1 D_1   
     e(  2 -  2) =    -54.36528  eV     1   --> A_1  G_1 D_1   
     e(  3 -  4) =    -54.31058  eV     2   --> E    G_5 D_5   
     e(  5 -  5) =     10.79895  eV     1   --> A_1  G_1 D_1   
     e(  6 -  6) =     11.26832  eV     1   --> B_2  G_4 D_2'  
     e(  7 -  7) =     13.95062  eV     1   --> B_1  G_3 D_2   
     e(  8 -  9) =     14.10871  eV     2   --> E    G_5 D_5   
     e( 10 - 10) =     16.80523  eV     1   --> A_1  G_1 D_1   
     e( 11 - 11) =     22.64522  eV     1   --> A_1  G_1 D_1   
     e( 12 - 13) =     28.33475  eV     2   --> E    G_5 D_5   
     e( 14 - 14) =     32.91535  eV     1   --> B_2  G_4 D_2'  

 **************************************************************************

 **************************************************************************

                    xk=(   0.00000,   0.70617,   0.00000  )

     point group D_4h(4/mmm)
     there are 10 classes
     the character table:

       E     2C4   C2    2C2'  2C2'' i     2S4   s_h   2s_v  2s_d 
A_1g   1.00  1.00  1.00  1.00  1.00  1.00  1.00  1.00  1.00  1.00
A_2g   1.00  1.00  1.00 -1.00 -1.00  1.00  1.00  1.00 -1.00 -1.00
B_1g   1.00 -1.00  1.00  1.00 -1.00  1.00 -1.00  1.00  1.00 -1.00
B_2g   1.00 -1.00  1.00 -1.00  1.00  1.00 -1.00  1.00 -1.00  1.00
E_g    2.00  0.00 -2.00  0.00  0.00  2.00  0.00 -2.00  0.00  0.00
A_1u   1.00  1.00  1.00  1.00  1.00 -1.00 -1.00 -1.00 -1.00 -1.00
A_2u   1.00  1.00  1.00 -1.00 -1.00 -1.00 -1.00 -1.00  1.00  1.00
B_1u   1.00 -1.00  1.00  1.00 -1.00 -1.00  1.00 -1.00 -1.00  1.00
B_2u   1.00 -1.00  1.00 -1.00  1.00 -1.00  1.00 -1.00  1.00 -1.00
E_u    2.00  0.00 -2.00  0.00  0.00 -2.00  0.00  2.00  0.00  0.00

     the symmetry operations in each class and the name of the first element:

     E        1
                                                                 
     2C4      7    8
                                                                 
     C2       3
                                                                 
     2C2'     2    4
                                                                 
     2C2''    5    6
                                                                 
     i        9
                                                                 
     2S4     15   16
                                                                 
     s_h     11
                                                                 
     2s_v    10   12
                                                                 
     2s_d    13   14
                                                                 

     Band symmetry, D_4h(4/mmm) point group:

     e(  1 -  1) =    -96.91915  eV     1   --> A_1g X_1  M_1  
     e(  2 -  2) =    -54.36570  eV     1   --> A_2u X_4' M_4' 
     e(  3 -  4) =    -54.31076  eV     2   --> E_u  X_5' M_5' 
     e(  5 -  5) =     10.79953  eV     1   --> A_1g X_1  M_1  
     e(  6 -  6) =     11.26234  eV     1   --> B_2g X_3  M_3  
     e(  7 -  7) =     13.95318  eV     1   --> B_1g X_2  M_2  
     e(  8 -  9) =     14.11807  eV     2   --> E_g  X_5  M_5  
     e( 10 - 10) =     16.95641  eV     1   --> A_2u X_4' M_4' 
     e( 11 - 11) =     22.44883  eV     1   --> A_1g X_1  M_1  
     e( 12 - 13) =     28.30127  eV     2   --> E_u  X_5' M_5' 
     e( 14 - 14) =     32.90582  eV     1   --> B_2g X_3  M_3  

 **************************************************************************

 **************************************************************************

                    xk=(   0.03210,   0.70617,  -0.00000  )

     point group C_2v (mm2) 
     there are  4 classes
     the character table:

       E     C2    s_v   s_v' 
A_1    1.00  1.00  1.00  1.00
A_2    1.00  1.00 -1.00 -1.00
B_1    1.00 -1.00  1.00 -1.00
B_2    1.00 -1.00 -1.00  1.00

     the symmetry operations in each class and the name of the first element:

     E        1
                                                                 
     C2       2
                                                                 
     s_v      4
                                                                 
     s_v'     3
                                                                 

     Band symmetry, C_2v (mm2)  point group:

     e(  1 -  1) =    -96.91915  eV     1   --> A_1  D_1  S_1  
     e(  2 -  2) =    -54.36542  eV     1   --> B_2  D_4  S_4  
     e(  3 -  3) =    -54.31104  eV     1   --> B_1  D_3  S_3  
     e(  4 -  4) =    -54.31077  eV     1   --> A_1  D_1  S_1  
     e(  5 -  5) =     10.81113  eV     1   --> A_1  D_1  S_1  
     e(  6 -  6) =     11.26914  eV     1   --> B_1  D_3  S_3  
     e(  7 -  7) =     13.94457  eV     1   --> A_1  D_1  S_1  
     e(  8 -  8) =     14.07128  eV     1   --> B_2  D_4  S_4  
     e(  9 -  9) =     14.11809  eV     1   --> A_2  D_2  S_2  
     e( 10 - 10) =     17.02547  eV     1   --> B_2  D_4  S_4  
     e( 11 - 11) =     22.45776  eV     1   --> A_1  D_1  S_1  
     e( 12 - 12) =     28.12822  eV     1   --> B_1  D_3  S_3  
     e( 13 - 13) =     28.18892  eV     1   --> A_1  D_1  S_1  
     e( 14 - 14) =     33.10897  eV     1   --> B_1  D_3  S_3  

 **************************************************************************

 **************************************************************************

                    xk=(   0.06420,   0.70617,  -0.00000  )

     Band symmetry, C_2v (mm2)  point group:

     e(  1 -  1) =    -96.91915  eV     1   --> A_1  D_1  S_1  
     e(  2 -  2) =    -54.36459  eV     1   --> B_2  D_4  S_4  
     e(  3 -  3) =    -54.31187  eV     1   --> B_1  D_3  S_3  
     e(  4 -  4) =    -54.31081  eV     1   --> A_1  D_1  S_1  
     e(  5 -  5) =     10.84545  eV     1   --> A_1  D_1  S_1  
     e(  6 -  6) =     11.28950  eV     1   --> B_1  D_3  S_3  
     e(  7 -  7) =     13.91897  eV     1   --> A_1  D_1  S_1  
     e(  8 -  8) =     13.94307  eV     1   --> B_2  D_4  S_4  
     e(  9 -  9) =     14.11814  eV     1   --> A_2  D_2  S_2  
     e( 10 - 10) =     17.22042  eV     1   --> B_2  D_4  S_4  
     e( 11 - 11) =     22.48481  eV     1   --> A_1  D_1  S_1  
     e( 12 - 12) =     27.67873  eV     1   --> B_1  D_3  S_3  
     e( 13 - 13) =     27.88197  eV     1   --> A_1  D_1  S_1  
     e( 14 - 14) =     33.64836  eV     1   --> B_1  D_3  S_3  

 **************************************************************************

 **************************************************************************

                    xk=(   0.09630,   0.70617,   0.00000  )

     Band symmetry, C_2v (mm2)  point group:

     e(  1 -  1) =    -96.91916  eV     1   --> A_1  D_1  S_1  
     e(  2 -  2) =    -54.36322  eV     1   --> B_2  D_4  S_4  
     e(  3 -  3) =    -54.31325  eV     1   --> B_1  D_3  S_3  
     e(  4 -  4) =    -54.31086  eV     1   --> A_1  D_1  S_1  
     e(  5 -  5) =     10.90104  eV     1   --> A_1  D_1  S_1  
     e(  6 -  6) =     11.32363  eV     1   --> B_1  D_3  S_3  
     e(  7 -  7) =     13.75989  eV     1   --> B_2  D_4  S_4  
     e(  8 -  8) =     13.87707  eV     1   --> A_1  D_1  S_1  
     e(  9 -  9) =     14.11822  eV     1   --> A_2  D_2  S_2  
     e( 10 - 10) =     17.51466  eV     1   --> B_2  D_4  S_4  
     e( 11 - 11) =     22.53075  eV     1   --> A_1  D_1  S_1  
     e( 12 - 12) =     27.07380  eV     1   --> B_1  D_3  S_3  
     e( 13 - 13) =     27.44605  eV     1   --> A_1  D_1  S_1  
     e( 14 - 14) =     34.40411  eV     1   --> B_1  D_3  S_3  

 **************************************************************************

 **************************************************************************

                    xk=(   0.12839,   0.70617,   0.00000  )

     Band symmetry, C_2v (mm2)  point group:

     e(  1 -  1) =    -96.91916  eV     1   --> A_1  D_1  S_1  
     e(  2 -  2) =    -54.36135  eV     1   --> B_2  D_4  S_4  
     e(  3 -  3) =    -54.31513  eV     1   --> B_1  D_3  S_3  
     e(  4 -  4) =    -54.31091  eV     1   --> A_1  D_1  S_1  
     e(  5 -  5) =     10.97549  eV     1   --> A_1  D_1  S_1  
     e(  6 -  6) =     11.37167  eV     1   --> B_1  D_3  S_3  
     e(  7 -  7) =     13.54685  eV     1   --> B_2  D_4  S_4  
     e(  8 -  8) =     13.82019  eV     1   --> A_1  D_1  S_1  
     e(  9 -  9) =     14.11832  eV     1   --> A_2  D_2  S_2  
     e( 10 - 10) =     17.88283  eV     1   --> B_2  D_4  S_4  
     e( 11 - 11) =     22.59705  eV     1   --> A_1  D_1  S_1  
     e( 12 - 12) =     26.39614  eV     1   --> B_1  D_3  S_3  
     e( 13 - 13) =     26.94415  eV     1   --> A_1  D_1  S_1  
     e( 14 - 14) =     35.29343  eV     1   --> B_1  D_3  S_3  

 **************************************************************************

 **************************************************************************

                    xk=(   0.16049,   0.70617,   0.00000  )

     Band symmetry, C_2v (mm2)  point group:

     e(  1 -  1) =    -96.91917  eV     1   --> A_1  D_1  S_1  
     e(  2 -  2) =    -54.35901  eV     1   --> B_2  D_4  S_4  
     e(  3 -  3) =    -54.31749  eV     1   --> B_1  D_3  S_3  
     e(  4 -  4) =    -54.31098  eV     1   --> A_1  D_1  S_1  
     e(  5 -  5) =     11.06505  eV     1   --> A_1  D_1  S_1  
     e(  6 -  6) =     11.43355  eV     1   --> B_1  D_3  S_3  
     e(  7 -  7) =     13.32173  eV     1   --> B_2  D_4  S_4  
     e(  8 -  8) =     13.75049  eV     1   --> A_1  D_1  S_1  
     e(  9 -  9) =     14.11844  eV     1   --> A_2  D_2  S_2  
     e( 10 - 10) =     18.30681  eV     1   --> B_2  D_4  S_4  
     e( 11 - 11) =     22.68534  eV     1   --> A_1  D_1  S_1  
     e( 12 - 12) =     25.68875  eV     1   --> B_1  D_3  S_3  
     e( 13 - 13) =     26.42127  eV     1   --> A_1  D_1  S_1  
     e( 14 - 14) =     36.27152  eV     1   --> B_1  D_3  S_3  

 **************************************************************************

 **************************************************************************

                    xk=(   0.19259,   0.70617,   0.00000  )

     Band symmetry, C_2v (mm2)  point group:

     e(  1 -  1) =    -96.91917  eV     1   --> A_1  D_1  S_1  
     e(  2 -  2) =    -54.35624  eV     1   --> B_2  D_4  S_4  
     e(  3 -  3) =    -54.32026  eV     1   --> B_1  D_3  S_3  
     e(  4 -  4) =    -54.31105  eV     1   --> A_1  D_1  S_1  
     e(  5 -  5) =     11.16485  eV     1   --> A_1  D_1  S_1  
     e(  6 -  6) =     11.51009  eV     1   --> B_1  D_3  S_3  
     e(  7 -  7) =     13.09578  eV     1   --> B_2  D_4  S_4  
     e(  8 -  8) =     13.67136  eV     1   --> A_1  D_1  S_1  
     e(  9 -  9) =     14.11856  eV     1   --> A_2  D_2  S_2  
     e( 10 - 10) =     18.77501  eV     1   --> B_2  D_4  S_4  
     e( 11 - 11) =     22.79806  eV     1   --> A_1  D_1  S_1  
     e( 12 - 12) =     24.97540  eV     1   --> B_1  D_3  S_3  
     e( 13 - 13) =     25.90685  eV     1   --> A_1  D_1  S_1  
     e( 14 - 14) =     37.31947  eV     1   --> B_1  D_3  S_3  

 **************************************************************************

 **************************************************************************

                    xk=(   0.22469,   0.70617,   0.00000  )

     Band symmetry, C_2v (mm2)  point group:

     e(  1 -  1) =    -96.91917  eV     1   --> A_1  D_1  S_1  
     e(  2 -  2) =    -54.35311  eV     1   --> B_2  D_4  S_4  
     e(  3 -  3) =    -54.32340  eV     1   --> B_1  D_3  S_3  
     e(  4 -  4) =    -54.31111  eV     1   --> A_1  D_1  S_1  
     e(  5 -  5) =     11.26813  eV     1   --> A_1  D_1  S_1  
     e(  6 -  6) =     11.60136  eV     1   --> B_1  D_3  S_3  
     e(  7 -  7) =     12.87585  eV     1   --> B_2  D_4  S_4  
     e(  8 -  8) =     13.58782  eV     1   --> A_1  D_1  S_1  
     e(  9 -  9) =     14.11867  eV     1   --> A_2  D_2  S_2  
     e( 10 - 10) =     19.27990  eV     1   --> B_2  D_4  S_4  
     e( 11 - 11) =     22.93763  eV     1   --> A_1  D_1  S_1  
     e( 12 - 12) =     24.26741  eV     1   --> B_1  D_3  S_3  
     e( 13 - 13) =     25.41854  eV     1   --> A_1  D_1  S_1  
     e( 14 - 14) =     38.42421  eV     1   --> B_1  D_3  S_3  

 **************************************************************************

 **************************************************************************

                    xk=(   0.25679,   0.70617,  -0.00000  )

     Band symmetry, C_2v (mm2)  point group:

     e(  1 -  1) =    -96.91917  eV     1   --> A_1  D_1  S_1  
     e(  2 -  2) =    -54.34967  eV     1   --> B_2  D_4  S_4  
     e(  3 -  3) =    -54.32685  eV     1   --> B_1  D_3  S_3  
     e(  4 -  4) =    -54.31117  eV     1   --> A_1  D_1  S_1  
     e(  5 -  5) =     11.36646  eV     1   --> A_1  D_1  S_1  
     e(  6 -  6) =     11.70755  eV     1   --> B_1  D_3  S_3  
     e(  7 -  7) =     12.66619  eV     1   --> B_2  D_4  S_4  
     e(  8 -  8) =     13.50686  eV     1   --> A_1  D_1  S_1  
     e(  9 -  9) =     14.11877  eV     1   --> A_2  D_2  S_2  
     e( 10 - 10) =     19.81705  eV     1   --> B_2  D_4  S_4  
     e( 11 - 11) =     23.10706  eV     1   --> A_1  D_1  S_1  
     e( 12 - 12) =     23.57137  eV     1   --> B_1  D_3  S_3  
     e( 13 - 13) =     24.96719  eV     1   --> A_1  D_1  S_1  
     e( 14 - 14) =     39.57914  eV     1   --> B_1  D_3  S_3  

 **************************************************************************

 **************************************************************************

                    xk=(   0.28889,   0.70617,   0.00000  )

     Band symmetry, C_2v (mm2)  point group:

     e(  1 -  1) =    -96.91917  eV     1   --> A_1  D_1  S_1  
     e(  2 -  2) =    -54.34599  eV     1   --> B_2  D_4  S_4  
     e(  3 -  3) =    -54.33052  eV     1   --> B_1  D_3  S_3  
     e(  4 -  4) =    -54.31122  eV     1   --> A_1  D_1  S_1  
     e(  5 -  5) =     11.44915  eV     1   --> A_1  D_1  S_1  
     e(  6 -  6) =     11.82911  eV     1   --> B_1  D_3  S_3  
     e(  7 -  7) =     12.46922  eV     1   --> B_2  D_4  S_4  
     e(  8 -  8) =     13.43756  eV     1   --> A_1  D_1  S_1  
     e(  9 -  9) =     14.11885  eV     1   --> A_2  D_2  S_2  
     e( 10 - 10) =     20.38301  eV     1   --> B_2  D_4  S_4  
     e( 11 - 11) =     22.89184  eV     1   --> B_1  D_3  S_3  
     e( 12 - 12) =     23.30730  eV     1   --> A_1  D_1  S_1  
     e( 13 - 13) =     24.55996  eV     1   --> A_1  D_1  S_1  
     e( 14 - 14) =     40.78181  eV     1   --> B_1  D_3  S_3  

 **************************************************************************

 **************************************************************************

                    xk=(   0.32099,   0.70617,   0.00000  )

     Band symmetry, C_2v (mm2)  point group:

     e(  1 -  1) =    -96.91918  eV     1   --> A_1  D_1  S_1  
     e(  2 -  2) =    -54.34217  eV     1   --> B_2  D_4  S_4  
     e(  3 -  3) =    -54.33435  eV     1   --> B_1  D_3  S_3  
     e(  4 -  4) =    -54.31126  eV     1   --> A_1  D_1  S_1  
     e(  5 -  5) =     11.50501  eV     1   --> A_1  D_1  S_1  
     e(  6 -  6) =     11.96592  eV     1   --> B_1  D_3  S_3  
     e(  7 -  7) =     12.28629  eV     1   --> B_2  D_4  S_4  
     e(  8 -  8) =     13.39007  eV     1   --> A_1  D_1  S_1  
     e(  9 -  9) =     14.11889  eV     1   --> A_2  D_2  S_2  
     e( 10 - 10) =     20.97503  eV     1   --> B_2  D_4  S_4  
     e( 11 - 11) =     22.23087  eV     1   --> B_1  D_3  S_3  
     e( 12 - 12) =     23.53437  eV     1   --> A_1  D_1  S_1  
     e( 13 - 13) =     24.20628  eV     1   --> A_1  D_1  S_1  
     e( 14 - 14) =     42.02883  eV     1   --> B_1  D_3  S_3  

 **************************************************************************

 **************************************************************************

                    xk=(   0.35309,   0.70617,   0.00000  )

     point group D_2d (-42m)
     there are  5 classes
     the character table:

       E     2S4   C2    2C2'  2s_d 
A_1    1.00  1.00  1.00  1.00  1.00
A_2    1.00  1.00  1.00 -1.00 -1.00
B_1    1.00 -1.00  1.00  1.00 -1.00
B_2    1.00 -1.00  1.00 -1.00  1.00
E      2.00  0.00 -2.00  0.00  0.00

     the symmetry operations in each class and the name of the first element:

     E        1
                                                                 
     2S4      7    8
                                                                 
     C2       2
                                                                 
     2C2'     3    4
                                                                 
     2s_d     5    6
                                                                 

     Band symmetry, D_2d (-42m) point group:

     e(  1 -  1) =    -96.91918  eV     1   --> A_1  X_1  W_1  
     e(  2 -  3) =    -54.33826  eV     2   --> E    X_5  W_3  
     e(  4 -  4) =    -54.31127  eV     1   --> B_2  X_3  W_2  
     e(  5 -  5) =     11.52489  eV     1   --> B_2  X_3  W_2  
     e(  6 -  7) =     12.11840  eV     2   --> E    X_5  W_3  
     e(  8 -  8) =     13.37307  eV     1   --> A_1  X_1  W_1  
     e(  9 -  9) =     14.11891  eV     1   --> B_1  X_2  W_1' 
     e( 10 - 11) =     21.59154  eV     2   --> E    X_5  W_3  
     e( 12 - 12) =     23.70599  eV     1   --> B_2  X_3  W_2  
     e( 13 - 13) =     23.99222  eV     1   --> A_1  X_1  W_1  
     e( 14 - 14) =     43.31988  eV     1   -->   ?

 **************************************************************************

 **************************************************************************

                    xk=(   0.35309,   0.68540,   0.02077  )

     point group C_2  (2)   
     there are  2 classes
     the character table:

       E     C2   
A      1.00  1.00
B      1.00 -1.00

     the symmetry operations in each class and the name of the first element:

     E        1
                                                                 
     C2       2
                                                                 

     Band symmetry, C_2  (2)    point group:

     e(  1 -  1) =    -96.91921  eV     1   --> A              
     e(  2 -  2) =    -54.33876  eV     1   --> B              
     e(  3 -  3) =    -54.33783  eV     1   --> A              
     e(  4 -  4) =    -54.31084  eV     1   --> B              
     e(  5 -  5) =     11.53232  eV     1   --> B              
     e(  6 -  6) =     12.10449  eV     1   --> A              
     e(  7 -  7) =     12.12473  eV     1   --> B              
     e(  8 -  8) =     13.37322  eV     1   --> A              
     e(  9 -  9) =     14.10971  eV     1   --> A              
     e( 10 - 10) =     21.40111  eV     1   --> B              
     e( 11 - 11) =     21.48320  eV     1   --> A              
     e( 12 - 12) =     23.92092  eV     1   --> B              
     e( 13 - 13) =     24.15797  eV     1   --> A              
     e( 14 - 14) =     42.93910  eV     1   --> B              

 **************************************************************************

 **************************************************************************

                    xk=(   0.35309,   0.66463,   0.04154  )

     Band symmetry, C_2  (2)    point group:

     e(  1 -  1) =    -96.91931  eV     1   --> A              
     e(  2 -  2) =    -54.34018  eV     1   --> B              
     e(  3 -  3) =    -54.33656  eV     1   --> A              
     e(  4 -  4) =    -54.30965  eV     1   --> B              
     e(  5 -  5) =     11.55463  eV     1   --> B              
     e(  6 -  6) =     12.06358  eV     1   --> A              
     e(  7 -  7) =     12.14365  eV     1   --> B              
     e(  8 -  8) =     13.37220  eV     1   --> A              
     e(  9 -  9) =     14.08376  eV     1   --> A              
     e( 10 - 10) =     20.96660  eV     1   --> B              
     e( 11 - 11) =     21.22467  eV     1   --> A              
     e( 12 - 12) =     24.42926  eV     1   --> B              
     e( 13 - 13) =     24.58797  eV     1   --> A              
     e( 14 - 14) =     42.30886  eV     1   --> B              

 **************************************************************************

 **************************************************************************

                    xk=(   0.35309,   0.64386,   0.06231  )

     Band symmetry, C_2  (2)    point group:

     e(  1 -  1) =    -96.91948  eV     1   --> A              
     e(  2 -  2) =    -54.34228  eV     1   --> B              
     e(  3 -  3) =    -54.33452  eV     1   --> A              
     e(  4 -  4) =    -54.30793  eV     1   --> B              
     e(  5 -  5) =     11.59145  eV     1   --> B              
     e(  6 -  6) =     11.99775  eV     1   --> A              
     e(  7 -  7) =     12.17459  eV     1   --> B              
     e(  8 -  8) =     13.36569  eV     1   --> A              
     e(  9 -  9) =     14.04585  eV     1   --> A              
     e( 10 - 10) =     20.44570  eV     1   --> B              
     e( 11 - 11) =     20.91502  eV     1   --> A              
     e( 12 - 12) =     25.07187  eV     1   --> B              
     e( 13 - 13) =     25.18005  eV     1   --> A              
     e( 14 - 14) =     41.66512  eV     1   --> B              

 **************************************************************************

 **************************************************************************

                    xk=(   0.35309,   0.62309,   0.08308  )

     Band symmetry, C_2  (2)    point group:

     e(  1 -  1) =    -96.91970  eV     1   --> A              
     e(  2 -  2) =    -54.34483  eV     1   --> B              
     e(  3 -  3) =    -54.33173  eV     1   --> A              
     e(  4 -  4) =    -54.30589  eV     1   --> B              
     e(  5 -  5) =     11.64293  eV     1   --> B              
     e(  6 -  6) =     11.91010  eV     1   --> A              
     e(  7 -  7) =     12.21726  eV     1   --> B              
     e(  8 -  8) =     13.34762  eV     1   --> A              
     e(  9 -  9) =     14.00359  eV     1   --> A              
     e( 10 - 10) =     19.90353  eV     1   --> B              
     e( 11 - 11) =     20.60942  eV     1   --> A              
     e( 12 - 12) =     25.78551  eV     1   --> B              
     e( 13 - 13) =     25.87495  eV     1   --> A              
     e( 14 - 14) =     41.04252  eV     1   --> B              

 **************************************************************************

 **************************************************************************

                    xk=(   0.35309,   0.60232,   0.10385  )

     Band symmetry, C_2  (2)    point group:

     e(  1 -  1) =    -96.91998  eV     1   --> A              
     e(  2 -  2) =    -54.34762  eV     1   --> B              
     e(  3 -  3) =    -54.32833  eV     1   --> A              
     e(  4 -  4) =    -54.30371  eV     1   --> B              
     e(  5 -  5) =     11.70862  eV     1   --> B              
     e(  6 -  6) =     11.80408  eV     1   --> A              
     e(  7 -  7) =     12.27097  eV     1   --> B              
     e(  8 -  8) =     13.31190  eV     1   --> A              
     e(  9 -  9) =     13.96565  eV     1   --> A              
     e( 10 - 10) =     19.36326  eV     1   --> B              
     e( 11 - 11) =     20.33092  eV     1   --> A              
     e( 12 - 12) =     26.54595  eV     1   --> B              
     e( 13 - 13) =     26.64351  eV     1   --> A              
     e( 14 - 14) =     40.45008  eV     1   --> B              

 **************************************************************************

 **************************************************************************

                    xk=(   0.35309,   0.58155,   0.12462  )

     Band symmetry, C_2  (2)    point group:

     e(  1 -  1) =    -96.92029  eV     1   --> A              
     e(  2 -  2) =    -54.35051  eV     1   --> B              
     e(  3 -  3) =    -54.32440  eV     1   --> A              
     e(  4 -  4) =    -54.30151  eV     1   --> B              
     e(  5 -  5) =     11.68334  eV     1   --> A              
     e(  6 -  6) =     11.78774  eV     1   --> B              
     e(  7 -  7) =     12.33529  eV     1   --> B              
     e(  8 -  8) =     13.25563  eV     1   --> A              
     e(  9 -  9) =     13.93862  eV     1   --> A              
     e( 10 - 10) =     18.83430  eV     1   --> B              
     e( 11 - 11) =     20.08757  eV     1   --> A              
     e( 12 - 12) =     27.34392  eV     1   --> B              
     e( 13 - 13) =     27.47043  eV     1   --> A              
     e( 14 - 14) =     39.89264  eV     1   --> B              

 **************************************************************************

 **************************************************************************

                    xk=(   0.35309,   0.56078,   0.14539  )

     Band symmetry, C_2  (2)    point group:

     e(  1 -  1) =    -96.92063  eV     1   --> A              
     e(  2 -  2) =    -54.35342  eV     1   --> B              
     e(  3 -  3) =    -54.32009  eV     1   --> A              
     e(  4 -  4) =    -54.29938  eV     1   --> B              
     e(  5 -  5) =     11.55154  eV     1   --> A              
     e(  6 -  6) =     11.87877  eV     1   --> B              
     e(  7 -  7) =     12.41010  eV     1   --> B              
     e(  8 -  8) =     13.18110  eV     1   --> A              
     e(  9 -  9) =     13.92443  eV     1   --> A              
     e( 10 - 10) =     18.32107  eV     1   --> B              
     e( 11 - 11) =     19.88038  eV     1   --> A              
     e( 12 - 12) =     28.17395  eV     1   --> B              
     e( 13 - 13) =     28.34541  eV     1   --> A              
     e( 14 - 14) =     39.37320  eV     1   --> B              

 **************************************************************************

 **************************************************************************

                    xk=(   0.35309,   0.54001,   0.16616  )

     Band symmetry, C_2  (2)    point group:

     e(  1 -  1) =    -96.92100  eV     1   --> A              
     e(  2 -  2) =    -54.35625  eV     1   --> B              
     e(  3 -  3) =    -54.31555  eV     1   --> A              
     e(  4 -  4) =    -54.29737  eV     1   --> B              
     e(  5 -  5) =     11.41312  eV     1   --> A              
     e(  6 -  6) =     11.97935  eV     1   --> B              
     e(  7 -  7) =     12.49609  eV     1   --> B              
     e(  8 -  8) =     13.09472  eV     1   --> A              
     e(  9 -  9) =     13.92095  eV     1   --> A              
     e( 10 - 10) =     17.82598  eV     1   --> B              
     e( 11 - 11) =     19.70784  eV     1   --> A              
     e( 12 - 12) =     29.03314  eV     1   --> B              
     e( 13 - 13) =     29.26139  eV     1   --> A              
     e( 14 - 14) =     38.89415  eV     1   --> B              

 **************************************************************************

 **************************************************************************

                    xk=(   0.35309,   0.51924,   0.18693  )

     Band symmetry, C_2  (2)    point group:

     e(  1 -  1) =    -96.92137  eV     1   --> A              
     e(  2 -  2) =    -54.35894  eV     1   --> B              
     e(  3 -  3) =    -54.31094  eV     1   --> A              
     e(  4 -  4) =    -54.29551  eV     1   --> B              
     e(  5 -  5) =     11.27248  eV     1   --> A              
     e(  6 -  6) =     12.08575  eV     1   --> B              
     e(  7 -  7) =     12.59529  eV     1   --> B              
     e(  8 -  8) =     13.00387  eV     1   --> A              
     e(  9 -  9) =     13.92461  eV     1   --> A              
     e( 10 - 10) =     17.35033  eV     1   --> B              
     e( 11 - 11) =     19.56634  eV     1   --> A              
     e( 12 - 12) =     29.91997  eV     1   --> B              
     e( 13 - 13) =     30.21200  eV     1   --> A              
     e( 14 - 14) =     38.45820  eV     1   --> B              

 **************************************************************************

 **************************************************************************

                    xk=(   0.35309,   0.49847,   0.20770  )

     Band symmetry, C_2  (2)    point group:

     e(  1 -  1) =    -96.92173  eV     1   --> A              
     e(  2 -  2) =    -54.36144  eV     1   --> B              
     e(  3 -  3) =    -54.30639  eV     1   --> A              
     e(  4 -  4) =    -54.29383  eV     1   --> B              
     e(  5 -  5) =     11.13440  eV     1   --> A              
     e(  6 -  6) =     12.19242  eV     1   --> B              
     e(  7 -  7) =     12.71115  eV     1   --> B              
     e(  8 -  8) =     12.91480  eV     1   --> A              
     e(  9 -  9) =     13.93221  eV     1   --> A              
     e( 10 - 10) =     16.89485  eV     1   --> B              
     e( 11 - 11) =     19.45204  eV     1   --> A              
     e( 12 - 12) =     30.83227  eV     1   --> B              
     e( 13 - 13) =     31.19092  eV     1   --> A              
     e( 14 - 14) =     38.06782  eV     1   --> B              

 **************************************************************************

 **************************************************************************

                    xk=(   0.35309,   0.47770,   0.22847  )

     Band symmetry, C_2  (2)    point group:

     e(  1 -  1) =    -96.92207  eV     1   --> A              
     e(  2 -  2) =    -54.36369  eV     1   --> B              
     e(  3 -  3) =    -54.30208  eV     1   --> A              
     e(  4 -  4) =    -54.29235  eV     1   --> B              
     e(  5 -  5) =     11.00351  eV     1   --> A              
     e(  6 -  6) =     12.29288  eV     1   --> B              
     e(  7 -  7) =     12.83210  eV     1   --> A              
     e(  8 -  8) =     12.84800  eV     1   --> B              
     e(  9 -  9) =     13.94141  eV     1   --> A              
     e( 10 - 10) =     16.46024  eV     1   --> B              
     e( 11 - 11) =     19.36100  eV     1   --> A              
     e( 12 - 12) =     31.76666  eV     1   --> B              
     e( 13 - 13) =     32.19046  eV     1   --> A              
     e( 14 - 14) =     37.72535  eV     1   --> B              

 **************************************************************************

 **************************************************************************

                    xk=(   0.35309,   0.45693,   0.24924  )

     Band symmetry, C_2  (2)    point group:

     e(  1 -  1) =    -96.92238  eV     1   --> A              
     e(  2 -  2) =    -54.36566  eV     1   --> B              
     e(  3 -  3) =    -54.29814  eV     1   --> A              
     e(  4 -  4) =    -54.29108  eV     1   --> B              
     e(  5 -  5) =     10.88442  eV     1   --> A              
     e(  6 -  6) =     12.38147  eV     1   --> B              
     e(  7 -  7) =     12.75891  eV     1   --> A              
     e(  8 -  8) =     13.00925  eV     1   --> B              
     e(  9 -  9) =     13.95070  eV     1   --> A              
     e( 10 - 10) =     16.04712  eV     1   --> B              
     e( 11 - 11) =     19.28984  eV     1   --> A              
     e( 12 - 12) =     32.71859  eV     1   --> B              
     e( 13 - 13) =     33.20100  eV     1   --> A              
     e( 14 - 14) =     37.43362  eV     1   --> B              

 **************************************************************************

 **************************************************************************

                    xk=(   0.35309,   0.43617,   0.27001  )

     Band symmetry, C_2  (2)    point group:

     e(  1 -  1) =    -96.92265  eV     1   --> A              
     e(  2 -  2) =    -54.36732  eV     1   --> B              
     e(  3 -  3) =    -54.29471  eV     1   --> A              
     e(  4 -  4) =    -54.29003  eV     1   --> B              
     e(  5 -  5) =     10.78116  eV     1   --> A              
     e(  6 -  6) =     12.45478  eV     1   --> B              
     e(  7 -  7) =     12.69722  eV     1   --> A              
     e(  8 -  8) =     13.19565  eV     1   --> B              
     e(  9 -  9) =     13.95911  eV     1   --> A              
     e( 10 - 10) =     15.65646  eV     1   --> B              
     e( 11 - 11) =     19.23556  eV     1   --> A              
     e( 12 - 12) =     33.67851  eV     1   --> B              
     e( 13 - 13) =     34.20740  eV     1   --> A              
     e( 14 - 14) =     37.19613  eV     1   --> B              

 **************************************************************************

 **************************************************************************

                    xk=(   0.35309,   0.41540,   0.29078  )

     Band symmetry, C_2  (2)    point group:

     e(  1 -  1) =    -96.92288  eV     1   --> A              
     e(  2 -  2) =    -54.36864  eV     1   --> B              
     e(  3 -  3) =    -54.29193  eV     1   --> A              
     e(  4 -  4) =    -54.28922  eV     1   --> B              
     e(  5 -  5) =     10.69714  eV     1   --> A              
     e(  6 -  6) =     12.51165  eV     1   --> B              
     e(  7 -  7) =     12.64825  eV     1   --> A              
     e(  8 -  8) =     13.40489  eV     1   --> B              
     e(  9 -  9) =     13.96606  eV     1   --> A              
     e( 10 - 10) =     15.29020  eV     1   --> B              
     e( 11 - 11) =     19.19572  eV     1   --> A              
     e( 12 - 12) =     34.62566  eV     1   --> B              
     e( 13 - 13) =     35.18382  eV     1   --> A              
     e( 14 - 14) =     37.01920  eV     1   --> B              

 **************************************************************************

 **************************************************************************

                    xk=(   0.35309,   0.39463,   0.31155  )

     Band symmetry, C_2  (2)    point group:

     e(  1 -  1) =    -96.92304  eV     1   --> A              
     e(  2 -  2) =    -54.36960  eV     1   --> B              
     e(  3 -  3) =    -54.28986  eV     1   --> A              
     e(  4 -  4) =    -54.28863  eV     1   --> B              
     e(  5 -  5) =     10.63519  eV     1   --> A              
     e(  6 -  6) =     12.55208  eV     1   --> B              
     e(  7 -  7) =     12.61284  eV     1   --> A              
     e(  8 -  8) =     13.63056  eV     1   --> B              
     e(  9 -  9) =     13.97121  eV     1   --> A              
     e( 10 - 10) =     14.95358  eV     1   --> B              
     e( 11 - 11) =     19.16860  eV     1   --> A              
     e( 12 - 12) =     35.50502  eV     1   --> B              
     e( 13 - 13) =     36.08029  eV     1   --> A              
     e( 14 - 14) =     36.92079  eV     1   --> B              

 **************************************************************************

 **************************************************************************

                    xk=(   0.35309,   0.37386,   0.33232  )

     Band symmetry, C_2  (2)    point group:

     e(  1 -  1) =    -96.92314  eV     1   --> A              
     e(  2 -  2) =    -54.37017  eV     1   --> B              
     e(  3 -  3) =    -54.28858  eV     1   --> A              
     e(  4 -  4) =    -54.28827  eV     1   --> B              
     e(  5 -  5) =     10.59724  eV     1   --> A              
     e(  6 -  6) =     12.57625  eV     1   --> B              
     e(  7 -  7) =     12.59145  eV     1   --> A              
     e(  8 -  8) =     13.85240  eV     1   --> B              
     e(  9 -  9) =     13.97436  eV     1   --> A              
     e( 10 - 10) =     14.66566  eV     1   --> B              
     e( 11 - 11) =     19.15286  eV     1   --> A              
     e( 12 - 12) =     36.14961  eV     1   --> B              
     e( 13 - 13) =     36.78575  eV     1   --> A              
     e( 14 - 14) =     36.96083  eV     1   --> B              

 **************************************************************************

 **************************************************************************

                    xk=(   0.35309,   0.35309,   0.35309  )

     point group D_3d (-3m) 
     there are  6 classes
     the character table:

       E     2C3   3C2'  i     2S6   3s_d 
A_1g   1.00  1.00  1.00  1.00  1.00  1.00
A_2g   1.00  1.00 -1.00  1.00  1.00 -1.00
E_g    2.00 -1.00  0.00  2.00 -1.00  0.00
A_1u   1.00  1.00  1.00 -1.00 -1.00 -1.00
A_2u   1.00  1.00 -1.00 -1.00 -1.00  1.00
E_u    2.00 -1.00  0.00 -2.00  1.00  0.00

     the symmetry operations in each class and the name of the first element:

     E        1
                                                                 
     2C3      5    6
                                                                 
     3C2'     2    4    3
                                                                 
     i        7
                                                                 
     2S6     11   12
                                                                 
     3s_d     8   10    9
                                                                 

     Band symmetry, D_3d (-3m)  point group:

     e(  1 -  1) =    -96.92317  eV     1   --> A_1g L_1       
     e(  2 -  2) =    -54.37037  eV     1   --> A_2u L_2'      
     e(  3 -  4) =    -54.28815  eV     2   --> E_u  L_3'      
     e(  5 -  5) =     10.58445  eV     1   --> A_1g L_1       
     e(  6 -  7) =     12.58429  eV     2   --> E_g  L_3       
     e(  8 -  9) =     13.97542  eV     2   --> E_g  L_3       
     e( 10 - 10) =     14.52070  eV     1   --> A_2u L_2'      
     e( 11 - 11) =     19.14768  eV     1   --> A_1g L_1       
     e( 12 - 12) =     36.34430  eV     1   --> A_2u L_2'      
     e( 13 - 14) =     37.07724  eV     2   --> E_u  L_3'      

 **************************************************************************

 **************************************************************************

                    xk=(   0.33627,   0.33627,   0.33627  )

     point group C_3v (3m)  
     there are  3 classes
     the character table:

       E     2C3   3s_v 
A_1    1.00  1.00  1.00
A_2    1.00  1.00 -1.00
E      2.00 -1.00  0.00

     the symmetry operations in each class and the name of the first element:

     E        1
                                                                 
     2C3      2    3
                                                                 
     3s_v     4    5    6
                                                                 

     Band symmetry, C_3v (3m)   point group:

     e(  1 -  1) =    -96.92324  eV     1   --> A_1  L_1       
     e(  2 -  2) =    -54.36983  eV     1   --> A_1  L_1       
     e(  3 -  4) =    -54.28807  eV     2   --> E    L_3       
     e(  5 -  5) =     10.57173  eV     1   --> A_1  L_1       
     e(  6 -  7) =     12.58697  eV     2   --> E    L_3       
     e(  8 -  9) =     13.96915  eV     2   --> E    L_3       
     e( 10 - 10) =     14.41320  eV     1   --> A_1  L_1       
     e( 11 - 11) =     19.30706  eV     1   --> A_1  L_1       
     e( 12 - 12) =     36.36001  eV     1   --> A_1  L_1       
     e( 13 - 14) =     37.08270  eV     2   --> E    L_3       

 **************************************************************************

 **************************************************************************

                    xk=(   0.31946,   0.31946,   0.31946  )

     Band symmetry, C_3v (3m)   point group:

     e(  1 -  1) =    -96.92345  eV     1   --> A_1  L_1       
     e(  2 -  2) =    -54.36824  eV     1   --> A_1  L_1       
     e(  3 -  4) =    -54.28784  eV     2   --> E    L_3       
     e(  5 -  5) =     10.53119  eV     1   --> A_1  L_1       
     e(  6 -  7) =     12.59486  eV     2   --> E    L_3       
     e(  8 -  9) =     13.95058  eV     2   --> E    L_3       
     e( 10 - 10) =     14.13344  eV     1   --> A_1  L_1       
     e( 11 - 11) =     19.74446  eV     1   --> A_1  L_1       
     e( 12 - 12) =     36.40677  eV     1   --> A_1  L_1       
     e( 13 - 14) =     37.09927  eV     2   --> E    L_3       

 **************************************************************************

 **************************************************************************

                    xk=(   0.30264,   0.30264,   0.30264  )

     Band symmetry, C_3v (3m)   point group:

     e(  1 -  1) =    -96.92378  eV     1   --> A_1  L_1       
     e(  2 -  2) =    -54.36559  eV     1   --> A_1  L_1       
     e(  3 -  4) =    -54.28743  eV     2   --> E    L_3       
     e(  5 -  5) =     10.45656  eV     1   --> A_1  L_1       
     e(  6 -  7) =     12.60775  eV     2   --> E    L_3       
     e(  8 -  8) =     13.76741  eV     1   --> A_1  L_1       
     e(  9 - 10) =     13.92038  eV     2   --> E    L_3       
     e( 11 - 11) =     20.38114  eV     1   --> A_1  L_1       
     e( 12 - 12) =     36.48357  eV     1   --> A_1  L_1       
     e( 13 - 14) =     37.12819  eV     2   --> E    L_3       

 **************************************************************************

 **************************************************************************

                    xk=(   0.28583,   0.28583,   0.28583  )

     Band symmetry, C_3v (3m)   point group:

     e(  1 -  1) =    -96.92423  eV     1   --> A_1  L_1       
     e(  2 -  2) =    -54.36198  eV     1   --> A_1  L_1       
     e(  3 -  4) =    -54.28688  eV     2   --> E    L_3       
     e(  5 -  5) =     10.33690  eV     1   --> A_1  L_1       
     e(  6 -  7) =     12.62510  eV     2   --> E    L_3       
     e(  8 -  8) =     13.38985  eV     1   --> A_1  L_1       
     e(  9 - 10) =     13.87965  eV     2   --> E    L_3       
     e( 11 - 11) =     21.15111  eV     1   --> A_1  L_1       
     e( 12 - 12) =     36.58859  eV     1   --> A_1  L_1       
     e( 13 - 14) =     37.17077  eV     2   --> E    L_3       

 **************************************************************************

 **************************************************************************

                    xk=(   0.26902,   0.26902,   0.26902  )

     Band symmetry, C_3v (3m)   point group:

     e(  1 -  1) =    -96.92480  eV     1   --> A_1  L_1       
     e(  2 -  2) =    -54.35748  eV     1   --> A_1  L_1       
     e(  3 -  4) =    -54.28619  eV     2   --> E    L_3       
     e(  5 -  5) =     10.16112  eV     1   --> A_1  L_1       
     e(  6 -  7) =     12.64620  eV     2   --> E    L_3       
     e(  8 -  8) =     13.05184  eV     1   --> A_1  L_1       
     e(  9 - 10) =     13.82990  eV     2   --> E    L_3       
     e( 11 - 11) =     22.01434  eV     1   --> A_1  L_1       
     e( 12 - 12) =     36.71927  eV     1   --> A_1  L_1       
     e( 13 - 14) =     37.22857  eV     2   --> E    L_3       

 **************************************************************************

 **************************************************************************

                    xk=(   0.25220,   0.25220,   0.25220  )

     Band symmetry, C_3v (3m)   point group:

     e(  1 -  1) =    -96.92546  eV     1   --> A_1  L_1       
     e(  2 -  2) =    -54.35219  eV     1   --> A_1  L_1       
     e(  3 -  4) =    -54.28539  eV     2   --> E    L_3       
     e(  5 -  5) =      9.92298  eV     1   --> A_1  L_1       
     e(  6 -  7) =     12.67008  eV     2   --> E    L_3       
     e(  8 -  8) =     12.78246  eV     1   --> A_1  L_1       
     e(  9 - 10) =     13.77306  eV     2   --> E    L_3       
     e( 11 - 11) =     22.94701  eV     1   --> A_1  L_1       
     e( 12 - 12) =     36.87216  eV     1   --> A_1  L_1       
     e( 13 - 14) =     37.30313  eV     2   --> E    L_3       

 **************************************************************************

 **************************************************************************

                    xk=(   0.23539,   0.23539,   0.23539  )

     Band symmetry, C_3v (3m)   point group:

     e(  1 -  1) =    -96.92621  eV     1   --> A_1  L_1       
     e(  2 -  2) =    -54.34621  eV     1   --> A_1  L_1       
     e(  3 -  4) =    -54.28448  eV     2   --> E    L_3       
     e(  5 -  5) =      9.62717  eV     1   --> A_1  L_1       
     e(  6 -  6) =     12.59025  eV     1   --> A_1  L_1       
     e(  7 -  8) =     12.69551  eV     2   --> E    L_3       
     e(  9 - 10) =     13.71140  eV     2   --> E    L_3       
     e( 11 - 11) =     23.93590  eV     1   --> A_1  L_1       
     e( 12 - 12) =     37.04301  eV     1   --> A_1  L_1       
     e( 13 - 14) =     37.39582  eV     2   --> E    L_3       

 **************************************************************************

 **************************************************************************

                    xk=(   0.21858,   0.21858,   0.21858  )

     Band symmetry, C_3v (3m)   point group:

     e(  1 -  1) =    -96.92702  eV     1   --> A_1  L_1       
     e(  2 -  2) =    -54.33970  eV     1   --> A_1  L_1       
     e(  3 -  4) =    -54.28349  eV     2   --> E    L_3       
     e(  5 -  5) =      9.28875  eV     1   --> A_1  L_1       
     e(  6 -  6) =     12.46736  eV     1   --> A_1  L_1       
     e(  7 -  8) =     12.72088  eV     2   --> E    L_3       
     e(  9 - 10) =     13.64758  eV     2   --> E    L_3       
     e( 11 - 11) =     24.97008  eV     1   --> A_1  L_1       
     e( 12 - 12) =     37.22639  eV     1   --> A_1  L_1       
     e( 13 - 14) =     37.50764  eV     2   --> E    L_3       

 **************************************************************************

 **************************************************************************

                    xk=(   0.20176,   0.20176,   0.20176  )

     Band symmetry, C_3v (3m)   point group:

     e(  1 -  1) =    -96.92789  eV     1   --> A_1  L_1       
     e(  2 -  2) =    -54.33279  eV     1   --> A_1  L_1       
     e(  3 -  4) =    -54.28243  eV     2   --> E    L_3       
     e(  5 -  5) =      8.92731  eV     1   --> A_1  L_1       
     e(  6 -  6) =     12.39907  eV     1   --> A_1  L_1       
     e(  7 -  8) =     12.74424  eV     2   --> E    L_3       
     e(  9 - 10) =     13.58462  eV     2   --> E    L_3       
     e( 11 - 11) =     26.04408  eV     1   --> A_1  L_1       
     e( 12 - 12) =     37.41605  eV     1   --> A_1  L_1       
     e( 13 - 14) =     37.63988  eV     2   --> E    L_3       

 **************************************************************************

 **************************************************************************

                    xk=(   0.18495,   0.18495,   0.18495  )

     Band symmetry, C_3v (3m)   point group:

     e(  1 -  1) =    -96.92879  eV     1   --> A_1  L_1       
     e(  2 -  2) =    -54.32563  eV     1   --> A_1  L_1       
     e(  3 -  4) =    -54.28134  eV     2   --> E    L_3       
     e(  5 -  5) =      8.56058  eV     1   --> A_1  L_1       
     e(  6 -  6) =     12.37034  eV     1   --> A_1  L_1       
     e(  7 -  8) =     12.76327  eV     2   --> E    L_3       
     e(  9 - 10) =     13.52588  eV     2   --> E    L_3       
     e( 11 - 11) =     27.15319  eV     1   --> A_1  L_1       
     e( 12 - 12) =     37.60509  eV     1   --> A_1  L_1       
     e( 13 - 14) =     37.79311  eV     2   --> E    L_3       

 **************************************************************************

 **************************************************************************

                    xk=(   0.16814,   0.16814,   0.16814  )

     Band symmetry, C_3v (3m)   point group:

     e(  1 -  1) =    -96.92969  eV     1   --> A_1  L_1       
     e(  2 -  2) =    -54.31840  eV     1   --> A_1  L_1       
     e(  3 -  4) =    -54.28024  eV     2   --> E    L_3       
     e(  5 -  5) =      8.20214  eV     1   --> A_1  L_1       
     e(  6 -  6) =     12.36897  eV     1   --> A_1  L_1       
     e(  7 -  8) =     12.77546  eV     2   --> E    L_3       
     e(  9 - 10) =     13.47483  eV     2   --> E    L_3       
     e( 11 - 11) =     28.29366  eV     1   --> A_1  L_1       
     e( 12 - 12) =     37.78632  eV     1   --> A_1  L_1       
     e( 13 - 14) =     37.96785  eV     2   --> E    L_3       

 **************************************************************************

 **************************************************************************

                    xk=(   0.15132,   0.15132,   0.15132  )

     Band symmetry, C_3v (3m)   point group:

     e(  1 -  1) =    -96.93059  eV     1   --> A_1  L_1       
     e(  2 -  2) =    -54.31124  eV     1   --> A_1  L_1       
     e(  3 -  4) =    -54.27915  eV     2   --> E    L_3       
     e(  5 -  5) =      7.86173  eV     1   --> A_1  L_1       
     e(  6 -  6) =     12.38575  eV     1   --> A_1  L_1       
     e(  7 -  8) =     12.77855  eV     2   --> E    L_3       
     e(  9 - 10) =     13.43454  eV     2   --> E    L_3       
     e( 11 - 11) =     29.46146  eV     1   --> A_1  L_1       
     e( 12 - 12) =     37.95288  eV     1   --> A_1  L_1       
     e( 13 - 14) =     38.16434  eV     2   --> E    L_3       

 **************************************************************************

 **************************************************************************

                    xk=(   0.13451,   0.13451,   0.13451  )

     Band symmetry, C_3v (3m)   point group:

     e(  1 -  1) =    -96.93145  eV     1   --> A_1  L_1       
     e(  2 -  2) =    -54.30430  eV     1   --> A_1  L_1       
     e(  3 -  4) =    -54.27809  eV     2   --> E    L_3       
     e(  5 -  5) =      7.54630  eV     1   --> A_1  L_1       
     e(  6 -  6) =     12.41401  eV     1   --> A_1  L_1       
     e(  7 -  8) =     12.77145  eV     2   --> E    L_3       
     e(  9 - 10) =     13.40687  eV     2   --> E    L_3       
     e( 11 - 11) =     30.65378  eV     1   --> A_1  L_1       
     e( 12 - 12) =     38.09992  eV     1   --> A_1  L_1       
     e( 13 - 14) =     38.38284  eV     2   --> E    L_3       

 **************************************************************************

 **************************************************************************

                    xk=(   0.11770,   0.11770,   0.11770  )

     Band symmetry, C_3v (3m)   point group:

     e(  1 -  1) =    -96.93226  eV     1   --> A_1  L_1       
     e(  2 -  2) =    -54.29775  eV     1   --> A_1  L_1       
     e(  3 -  4) =    -54.27709  eV     2   --> E    L_3       
     e(  5 -  5) =      7.26066  eV     1   --> A_1  L_1       
     e(  6 -  6) =     12.44855  eV     1   --> A_1  L_1       
     e(  7 -  8) =     12.75485  eV     2   --> E    L_3       
     e(  9 - 10) =     13.39163  eV     2   --> E    L_3       
     e( 11 - 11) =     31.86508  eV     1   --> A_1  L_1       
     e( 12 - 12) =     38.22491  eV     1   --> A_1  L_1       
     e( 13 - 14) =     38.62196  eV     2   --> E    L_3       

 **************************************************************************

 **************************************************************************

                    xk=(   0.10088,   0.10088,   0.10088  )

     Band symmetry, C_3v (3m)   point group:

     e(  1 -  1) =    -96.93300  eV     1   --> A_1  L_1       
     e(  2 -  2) =    -54.29174  eV     1   --> A_1  L_1       
     e(  3 -  4) =    -54.27618  eV     2   --> E    L_3       
     e(  5 -  5) =      7.00817  eV     1   --> A_1  L_1       
     e(  6 -  6) =     12.48550  eV     1   --> A_1  L_1       
     e(  7 -  8) =     12.73136  eV     2   --> E    L_3       
     e(  9 - 10) =     13.38679  eV     2   --> E    L_3       
     e( 11 - 11) =     33.08848  eV     1   --> A_1  L_1       
     e( 12 - 12) =     38.33020  eV     1   --> A_1  L_1       
     e( 13 - 14) =     38.88068  eV     2   --> E    L_3       

 **************************************************************************

 **************************************************************************

                    xk=(   0.08407,   0.08407,   0.08407  )

     Band symmetry, C_3v (3m)   point group:

     e(  1 -  1) =    -96.93366  eV     1   --> A_1  L_1       
     e(  2 -  2) =    -54.28640  eV     1   --> A_1  L_1       
     e(  3 -  4) =    -54.27536  eV     2   --> E    L_3       
     e(  5 -  5) =      6.79131  eV     1   --> A_1  L_1       
     e(  6 -  6) =     12.52171  eV     1   --> A_1  L_1       
     e(  7 -  8) =     12.70450  eV     2   --> E    L_3       
     e(  9 - 10) =     13.38915  eV     2   --> E    L_3       
     e( 11 - 11) =     34.31135  eV     1   --> A_1  L_1       
     e( 12 - 12) =     38.42506  eV     1   --> A_1  L_1       
     e( 13 - 14) =     39.15536  eV     2   --> E    L_3       

 **************************************************************************

 **************************************************************************

                    xk=(   0.06725,   0.06725,   0.06725  )

     Band symmetry, C_3v (3m)   point group:

     e(  1 -  1) =    -96.93422  eV     1   --> A_1  L_1       
     e(  2 -  2) =    -54.28185  eV     1   --> A_1  L_1       
     e(  3 -  4) =    -54.27467  eV     2   --> E    L_3       
     e(  5 -  5) =      6.61184  eV     1   --> A_1  L_1       
     e(  6 -  6) =     12.55461  eV     1   --> A_1  L_1       
     e(  7 -  8) =     12.67780  eV     2   --> E    L_3       
     e(  9 - 10) =     13.39550  eV     2   --> E    L_3       
[...]

 **************************************************************************

                    xk=(   0.21578,   0.21578,   0.00000  )

     Band symmetry, C_2v (mm2)  point group:

     e(  1 -  1) =    -96.92914  eV     1   --> A_1  D_1  S_1  
     e(  2 -  2) =    -54.31565  eV     1   --> A_1  D_1  S_1  
     e(  3 -  3) =    -54.29014  eV     1   --> B_2  D_4  S_4  
     e(  4 -  4) =    -54.27876  eV     1   --> B_1  D_3  S_3  
     e(  5 -  5) =      8.39369  eV     1   --> A_1  D_1  S_1  
     e(  6 -  6) =     12.24795  eV     1   --> B_2  D_4  S_4  
     e(  7 -  7) =     12.75674  eV     1   --> A_1  D_1  S_1  
     e(  8 -  8) =     12.97367  eV     1   --> A_2  D_2  S_2  
     e(  9 -  9) =     13.15347  eV     1   --> B_1  D_3  S_3  
     e( 10 - 10) =     13.75988  eV     1   --> A_1  D_1  S_1  
     e( 11 - 11) =     30.31560  eV     1   --> B_2  D_4  S_4  
     e( 12 - 12) =     30.92809  eV     1   --> A_1  D_1  S_1  
     e( 13 - 13) =     40.39456  eV     1   --> A_1  D_1  S_1  
     e( 14 - 14) =     41.17241  eV     1   --> B_1  D_3  S_3  

 **************************************************************************

 **************************************************************************

                    xk=(   0.23539,   0.23539,   0.00000  )

     Band symmetry, C_2v (mm2)  point group:

     e(  1 -  1) =    -96.92823  eV     1   --> A_1  D_1  S_1  
     e(  2 -  2) =    -54.32104  eV     1   --> A_1  D_1  S_1  
     e(  3 -  3) =    -54.29319  eV     1   --> B_2  D_4  S_4  
     e(  4 -  4) =    -54.27983  eV     1   --> B_1  D_3  S_3  
     e(  5 -  5) =      8.75719  eV     1   --> A_1  D_1  S_1  
     e(  6 -  6) =     12.20714  eV     1   --> B_2  D_4  S_4  
     e(  7 -  7) =     12.72259  eV     1   --> A_1  D_1  S_1  
     e(  8 -  8) =     13.03298  eV     1   --> A_2  D_2  S_2  
     e(  9 -  9) =     13.12749  eV     1   --> B_1  D_3  S_3  
     e( 10 - 10) =     13.87850  eV     1   --> A_1  D_1  S_1  
     e( 11 - 11) =     29.50615  eV     1   --> B_2  D_4  S_4  
     e( 12 - 12) =     30.12884  eV     1   --> A_1  D_1  S_1  
     e( 13 - 13) =     39.80749  eV     1   --> A_1  D_1  S_1  
     e( 14 - 14) =     40.30771  eV     1   --> B_1  D_3  S_3  

 **************************************************************************

 **************************************************************************

                    xk=(   0.25501,   0.25501,   0.00000  )

     Band symmetry, C_2v (mm2)  point group:

     e(  1 -  1) =    -96.92732  eV     1   --> A_1  D_1  S_1  
     e(  2 -  2) =    -54.32611  eV     1   --> A_1  D_1  S_1  
     e(  3 -  3) =    -54.29645  eV     1   --> B_2  D_4  S_4  
     e(  4 -  4) =    -54.28100  eV     1   --> B_1  D_3  S_3  
     e(  5 -  5) =      9.13468  eV     1   --> A_1  D_1  S_1  
     e(  6 -  6) =     12.17165  eV     1   --> B_2  D_4  S_4  
     e(  7 -  7) =     12.67728  eV     1   --> A_1  D_1  S_1  
     e(  8 -  8) =     13.09479  eV     1   --> A_2  D_2  S_2  
     e(  9 -  9) =     13.10614  eV     1   --> B_1  D_3  S_3  
     e( 10 - 10) =     14.01872  eV     1   --> A_1  D_1  S_1  
     e( 11 - 11) =     28.71442  eV     1   --> B_2  D_4  S_4  
     e( 12 - 12) =     29.36583  eV     1   --> A_1  D_1  S_1  
     e( 13 - 13) =     39.23873  eV     1   --> A_1  D_1  S_1  
     e( 14 - 14) =     39.46363  eV     1   --> B_1  D_3  S_3  

 **************************************************************************

 **************************************************************************

                    xk=(   0.27462,   0.27462,  -0.00000  )

     Band symmetry, C_2v (mm2)  point group:

     e(  1 -  1) =    -96.92642  eV     1   --> A_1  D_1  S_1  
     e(  2 -  2) =    -54.33075  eV     1   --> A_1  D_1  S_1  
     e(  3 -  3) =    -54.29990  eV     1   --> B_2  D_4  S_4  
     e(  4 -  4) =    -54.28227  eV     1   --> B_1  D_3  S_3  
     e(  5 -  5) =      9.51901  eV     1   --> A_1  D_1  S_1  
     e(  6 -  6) =     12.14315  eV     1   --> B_2  D_4  S_4  
     e(  7 -  7) =     12.62209  eV     1   --> A_1  D_1  S_1  
     e(  8 -  8) =     13.09044  eV     1   --> B_1  D_3  S_3  
     e(  9 -  9) =     13.15858  eV     1   --> A_2  D_2  S_2  
     e( 10 - 10) =     14.18369  eV     1   --> A_1  D_1  S_1  
     e( 11 - 11) =     27.94218  eV     1   --> B_2  D_4  S_4  
     e( 12 - 12) =     28.64118  eV     1   --> A_1  D_1  S_1  
     e( 13 - 13) =     38.64198  eV     1   --> B_1  D_3  S_3  
     e( 14 - 14) =     38.69460  eV     1   --> A_1  D_1  S_1  

 **************************************************************************

 **************************************************************************

                    xk=(   0.29424,   0.29424,  -0.00000  )

     Band symmetry, C_2v (mm2)  point group:

     e(  1 -  1) =    -96.92555  eV     1   --> A_1  D_1  S_1  
     e(  2 -  2) =    -54.33485  eV     1   --> A_1  D_1  S_1  
     e(  3 -  3) =    -54.30353  eV     1   --> B_2  D_4  S_4  
     e(  4 -  4) =    -54.28363  eV     1   --> B_1  D_3  S_3  
     e(  5 -  5) =      9.90089  eV     1   --> A_1  D_1  S_1  
     e(  6 -  6) =     12.12292  eV     1   --> B_2  D_4  S_4  
     e(  7 -  7) =     12.55814  eV     1   --> A_1  D_1  S_1  
     e(  8 -  8) =     13.08122  eV     1   --> B_1  D_3  S_3  
     e(  9 -  9) =     13.22374  eV     1   --> A_2  D_2  S_2  
     e( 10 - 10) =     14.37880  eV     1   --> A_1  D_1  S_1  
     e( 11 - 11) =     27.18923  eV     1   --> B_2  D_4  S_4  
     e( 12 - 12) =     27.95675  eV     1   --> A_1  D_1  S_1  
     e( 13 - 13) =     37.84300  eV     1   --> B_1  D_3  S_3  
     e( 14 - 14) =     38.17928  eV     1   --> A_1  D_1  S_1  

 **************************************************************************

 **************************************************************************

                    xk=(   0.31385,   0.31385,   0.00000  )

     Band symmetry, C_2v (mm2)  point group:

     e(  1 -  1) =    -96.92471  eV     1   --> A_1  D_1  S_1  
     e(  2 -  2) =    -54.33830  eV     1   --> A_1  D_1  S_1  
     e(  3 -  3) =    -54.30729  eV     1   --> B_2  D_4  S_4  
     e(  4 -  4) =    -54.28508  eV     1   --> B_1  D_3  S_3  
     e(  5 -  5) =     10.26895  eV     1   --> A_1  D_1  S_1  
     e(  6 -  6) =     12.11231  eV     1   --> B_2  D_4  S_4  
     e(  7 -  7) =     12.48647  eV     1   --> A_1  D_1  S_1  
     e(  8 -  8) =     13.07921  eV     1   --> B_1  D_3  S_3  
     e(  9 -  9) =     13.28976  eV     1   --> A_2  D_2  S_2  
     e( 10 - 10) =     14.61189  eV     1   --> A_1  D_1  S_1  
     e( 11 - 11) =     26.45634  eV     1   --> B_2  D_4  S_4  
     e( 12 - 12) =     27.31440  eV     1   --> A_1  D_1  S_1  
     e( 13 - 13) =     37.06764  eV     1   --> B_1  D_3  S_3  
     e( 14 - 14) =     37.69568  eV     1   --> A_1  D_1  S_1  

 **************************************************************************

 **************************************************************************

                    xk=(   0.33347,   0.33347,   0.00000  )

     Band symmetry, C_2v (mm2)  point group:

     e(  1 -  1) =    -96.92392  eV     1   --> A_1  D_1  S_1  
     e(  2 -  2) =    -54.34105  eV     1   --> A_1  D_1  S_1  
     e(  3 -  3) =    -54.31118  eV     1   --> B_2  D_4  S_4  
     e(  4 -  4) =    -54.28660  eV     1   --> B_1  D_3  S_3  
     e(  5 -  5) =     10.61036  eV     1   --> A_1  D_1  S_1  
     e(  6 -  6) =     12.11253  eV     1   --> B_2  D_4  S_4  
     e(  7 -  7) =     12.40805  eV     1   --> A_1  D_1  S_1  
     e(  8 -  8) =     13.08495  eV     1   --> B_1  D_3  S_3  
     e(  9 -  9) =     13.35605  eV     1   --> A_2  D_2  S_2  
     e( 10 - 10) =     14.89278  eV     1   --> A_1  D_1  S_1  
     e( 11 - 11) =     25.74361  eV     1   --> B_2  D_4  S_4  
     e( 12 - 12) =     26.71567  eV     1   --> A_1  D_1  S_1  
     e( 13 - 13) =     36.31684  eV     1   --> B_1  D_3  S_3  
     e( 14 - 14) =     37.24557  eV     1   --> A_1  D_1  S_1  

 **************************************************************************

 **************************************************************************

                    xk=(   0.35309,   0.35309,   0.00000  )

     Band symmetry, C_2v (mm2)  point group:

     e(  1 -  1) =    -96.92318  eV     1   --> A_1  D_1  S_1  
     e(  2 -  2) =    -54.34306  eV     1   --> A_1  D_1  S_1  
     e(  3 -  3) =    -54.31517  eV     1   --> B_2  D_4  S_4  
     e(  4 -  4) =    -54.28819  eV     1   --> B_1  D_3  S_3  
     e(  5 -  5) =     10.91227  eV     1   --> A_1  D_1  S_1  
     e(  6 -  6) =     12.12453  eV     1   --> B_2  D_4  S_4  
     e(  7 -  7) =     12.32366  eV     1   --> A_1  D_1  S_1  
     e(  8 -  8) =     13.09876  eV     1   --> B_1  D_3  S_3  
     e(  9 -  9) =     13.42205  eV     1   --> A_2  D_2  S_2  
     e( 10 - 10) =     15.23182  eV     1   --> A_1  D_1  S_1  
     e( 11 - 11) =     25.05075  eV     1   --> B_2  D_4  S_4  
     e( 12 - 12) =     26.16142  eV     1   --> A_1  D_1  S_1  
     e( 13 - 13) =     35.59053  eV     1   --> B_1  D_3  S_3  
     e( 14 - 14) =     36.82961  eV     1   --> A_1  D_1  S_1  

 **************************************************************************

 **************************************************************************

                    xk=(   0.37270,   0.37270,   0.00000  )

     Band symmetry, C_2v (mm2)  point group:

     e(  1 -  1) =    -96.92252  eV     1   --> A_1  D_1  S_1  
     e(  2 -  2) =    -54.34430  eV     1   --> A_1  D_1  S_1  
     e(  3 -  3) =    -54.31923  eV     1   --> B_2  D_4  S_4  
     e(  4 -  4) =    -54.28985  eV     1   --> B_1  D_3  S_3  
     e(  5 -  5) =     11.16399  eV     1   --> A_1  D_1  S_1  
     e(  6 -  6) =     12.14916  eV     1   --> B_2  D_4  S_4  
     e(  7 -  7) =     12.23429  eV     1   --> A_1  D_1  S_1  
     e(  8 -  8) =     13.12082  eV     1   --> B_1  D_3  S_3  
     e(  9 -  9) =     13.48726  eV     1   --> A_2  D_2  S_2  
     e( 10 - 10) =     15.63748  eV     1   --> A_1  D_1  S_1  
     e( 11 - 11) =     24.37762  eV     1   --> B_2  D_4  S_4  
     e( 12 - 12) =     25.65254  eV     1   --> A_1  D_1  S_1  
     e( 13 - 13) =     34.88954  eV     1   --> B_1  D_3  S_3  
     e( 14 - 14) =     36.44793  eV     1   --> A_1  D_1  S_1  

 **************************************************************************

 **************************************************************************

                    xk=(   0.39232,   0.39232,   0.00000  )

     Band symmetry, C_2v (mm2)  point group:

     e(  1 -  1) =    -96.92191  eV     1   --> A_1  D_1  S_1  
     e(  2 -  2) =    -54.34476  eV     1   --> A_1  D_1  S_1  
     e(  3 -  3) =    -54.32333  eV     1   --> B_2  D_4  S_4  
     e(  4 -  4) =    -54.29156  eV     1   --> B_1  D_3  S_3  
     e(  5 -  5) =     11.35971  eV     1   --> A_1  D_1  S_1  
     e(  6 -  6) =     12.14092  eV     1   --> A_1  D_1  S_1  
     e(  7 -  7) =     12.18732  eV     1   --> B_2  D_4  S_4  
     e(  8 -  8) =     13.15113  eV     1   --> B_1  D_3  S_3  
     e(  9 -  9) =     13.55115  eV     1   --> A_2  D_2  S_2  
     e( 10 - 10) =     16.11424  eV     1   --> A_1  D_1  S_1  
     e( 11 - 11) =     23.72520  eV     1   --> B_2  D_4  S_4  
     e( 12 - 12) =     25.18919  eV     1   --> A_1  D_1  S_1  
     e( 13 - 13) =     34.21530  eV     1   --> B_1  D_3  S_3  
     e( 14 - 14) =     36.09997  eV     1   --> A_1  D_1  S_1  

 **************************************************************************

 **************************************************************************

                    xk=(   0.41193,   0.41193,   0.00000  )

     Band symmetry, C_2v (mm2)  point group:

     e(  1 -  1) =    -96.92138  eV     1   --> A_1  D_1  S_1  
     e(  2 -  2) =    -54.34449  eV     1   --> A_1  D_1  S_1  
     e(  3 -  3) =    -54.32742  eV     1   --> B_2  D_4  S_4  
     e(  4 -  4) =    -54.29329  eV     1   --> B_1  D_3  S_3  
     e(  5 -  5) =     11.49875  eV     1   --> A_1  D_1  S_1  
     e(  6 -  6) =     12.04492  eV     1   --> A_1  D_1  S_1  
     e(  7 -  7) =     12.23962  eV     1   --> B_2  D_4  S_4  
     e(  8 -  8) =     13.18941  eV     1   --> B_1  D_3  S_3  
     e(  9 -  9) =     13.61326  eV     1   --> A_2  D_2  S_2  
     e( 10 - 10) =     16.66177  eV     1   --> A_1  D_1  S_1  
     e( 11 - 11) =     23.09339  eV     1   --> B_2  D_4  S_4  
     e( 12 - 12) =     24.77145  eV     1   --> A_1  D_1  S_1  
     e( 13 - 13) =     33.56847  eV     1   --> B_1  D_3  S_3  
     e( 14 - 14) =     35.78476  eV     1   --> A_1  D_1  S_1  

 **************************************************************************

 **************************************************************************

                    xk=(   0.43155,   0.43155,   0.00000  )

     Band symmetry, C_2v (mm2)  point group:

     e(  1 -  1) =    -96.92091  eV     1   --> A_1  D_1  S_1  
     e(  2 -  2) =    -54.34349  eV     1   --> A_1  D_1  S_1  
     e(  3 -  3) =    -54.33148  eV     1   --> B_2  D_4  S_4  
     e(  4 -  4) =    -54.29504  eV     1   --> B_1  D_3  S_3  
     e(  5 -  5) =     11.58451  eV     1   --> A_1  D_1  S_1  
     e(  6 -  6) =     11.94818  eV     1   --> A_1  D_1  S_1  
     e(  7 -  7) =     12.30655  eV     1   --> B_2  D_4  S_4  
     e(  8 -  8) =     13.23523  eV     1   --> B_1  D_3  S_3  
     e(  9 -  9) =     13.67315  eV     1   --> A_2  D_2  S_2  
     e( 10 - 10) =     17.27602  eV     1   --> A_1  D_1  S_1  
     e( 11 - 11) =     22.48254  eV     1   --> B_2  D_4  S_4  
     e( 12 - 12) =     24.39820  eV     1   --> A_1  D_1  S_1  
     e( 13 - 13) =     32.95075  eV     1   --> B_1  D_3  S_3  
     e( 14 - 14) =     35.50112  eV     1   --> A_1  D_1  S_1  

 **************************************************************************

 **************************************************************************

                    xk=(   0.45117,   0.45117,  -0.00000  )

     Band symmetry, C_2v (mm2)  point group:

     e(  1 -  1) =    -96.92051  eV     1   --> A_1  D_1  S_1  
     e(  2 -  2) =    -54.34185  eV     1   --> A_1  D_1  S_1  
     e(  3 -  3) =    -54.33547  eV     1   --> B_2  D_4  S_4  
     e(  4 -  4) =    -54.29678  eV     1   --> B_1  D_3  S_3  
     e(  5 -  5) =     11.62124  eV     1   --> A_1  D_1  S_1  
     e(  6 -  6) =     11.85449  eV     1   --> A_1  D_1  S_1  
     e(  7 -  7) =     12.38841  eV     1   --> B_2  D_4  S_4  
     e(  8 -  8) =     13.28792  eV     1   --> B_1  D_3  S_3  
     e(  9 -  9) =     13.73042  eV     1   --> A_2  D_2  S_2  
     e( 10 - 10) =     17.95080  eV     1   --> A_1  D_1  S_1  
     e( 11 - 11) =     21.89272  eV     1   --> B_2  D_4  S_4  
     e( 12 - 12) =     24.06799  eV     1   --> A_1  D_1  S_1  
     e( 13 - 13) =     32.36355  eV     1   --> B_1  D_3  S_3  
     e( 14 - 14) =     35.24714  eV     1   --> A_1  D_1  S_1  

 **************************************************************************

 **************************************************************************

                    xk=(   0.47078,   0.47078,  -0.00000  )

     Band symmetry, C_2v (mm2)  point group:

     e(  1 -  1) =    -96.92017  eV     1   --> A_1  D_1  S_1  
     e(  2 -  2) =    -54.33966  eV     1   --> A_1  D_1  S_1  
     e(  3 -  3) =    -54.33935  eV     1   --> B_2  D_4  S_4  
     e(  4 -  4) =    -54.29851  eV     1   --> B_1  D_3  S_3  
     e(  5 -  5) =     11.61003  eV     1   --> A_1  D_1  S_1  
     e(  6 -  6) =     11.77174  eV     1   --> A_1  D_1  S_1  
     e(  7 -  7) =     12.48527  eV     1   --> B_2  D_4  S_4  
     e(  8 -  8) =     13.34653  eV     1   --> B_1  D_3  S_3  
     e(  9 -  9) =     13.78470  eV     1   --> A_2  D_2  S_2  
     e( 10 - 10) =     18.67920  eV     1   --> A_1  D_1  S_1  
     e( 11 - 11) =     21.32419  eV     1   --> B_2  D_4  S_4  
     e( 12 - 12) =     23.77870  eV     1   --> A_1  D_1  S_1  
     e( 13 - 13) =     31.80760  eV     1   --> B_1  D_3  S_3  
     e( 14 - 14) =     35.02077  eV     1   --> A_1  D_1  S_1  

 **************************************************************************

 **************************************************************************

                    xk=(   0.49040,   0.49040,   0.00000  )

     Band symmetry, C_2v (mm2)  point group:

     e(  1 -  1) =    -96.91990  eV     1   --> A_1  D_1  S_1  
     e(  2 -  2) =    -54.34309  eV     1   --> B_2  D_4  S_4  
     e(  3 -  3) =    -54.33701  eV     1   --> A_1  D_1  S_1  
     e(  4 -  4) =    -54.30019  eV     1   --> B_1  D_3  S_3  
     e(  5 -  5) =     11.55248  eV     1   --> A_1  D_1  S_1  
     e(  6 -  6) =     11.70758  eV     1   --> A_1  D_1  S_1  
     e(  7 -  7) =     12.59704  eV     1   --> B_2  D_4  S_4  
     e(  8 -  8) =     13.40998  eV     1   --> B_1  D_3  S_3  
     e(  9 -  9) =     13.83566  eV     1   --> A_2  D_2  S_2  
     e( 10 - 10) =     19.45469  eV     1   --> A_1  D_1  S_1  
     e( 11 - 11) =     20.77753  eV     1   --> B_2  D_4  S_4  
     e( 12 - 12) =     23.52807  eV     1   --> A_1  D_1  S_1  
     e( 13 - 13) =     31.28496  eV     1   --> B_1  D_3  S_3  
     e( 14 - 14) =     34.81975  eV     1   --> A_1  D_1  S_1  

 **************************************************************************

 **************************************************************************

                    xk=(   0.51001,   0.51001,   0.00000  )

     Band symmetry, C_2v (mm2)  point group:

     e(  1 -  1) =    -96.91968  eV     1   --> A_1  D_1  S_1  
     e(  2 -  2) =    -54.34665  eV     1   --> B_2  D_4  S_4  
     e(  3 -  3) =    -54.33401  eV     1   --> A_1  D_1  S_1  
     e(  4 -  4) =    -54.30181  eV     1   --> B_1  D_3  S_3  
     e(  5 -  5) =     11.46601  eV     1   --> A_1  D_1  S_1  
     e(  6 -  6) =     11.65340  eV     1   --> A_1  D_1  S_1  
     e(  7 -  7) =     12.72337  eV     1   --> B_2  D_4  S_4  
     e(  8 -  8) =     13.47692  eV     1   --> B_1  D_3  S_3  
     e(  9 -  9) =     13.88301  eV     1   --> A_2  D_2  S_2  
     e( 10 - 10) =     20.25341  eV     1   --> B_2  D_4  S_4  
     e( 11 - 11) =     20.27129  eV     1   --> A_1  D_1  S_1  
     e( 12 - 12) =     23.31377  eV     1   --> A_1  D_1  S_1  
     e( 13 - 13) =     30.79739  eV     1   --> B_1  D_3  S_3  
     e( 14 - 14) =     34.64162  eV     1   --> A_1  D_1  S_1  

 **************************************************************************

 **************************************************************************

                    xk=(   0.52963,   0.52963,   0.00000  )

     Band symmetry, C_2v (mm2)  point group:

     e(  1 -  1) =    -96.91952  eV     1   --> A_1  D_1  S_1  
     e(  2 -  2) =    -54.35002  eV     1   --> B_2  D_4  S_4  
     e(  3 -  3) =    -54.33081  eV     1   --> A_1  D_1  S_1  
     e(  4 -  4) =    -54.30336  eV     1   --> B_1  D_3  S_3  
     e(  5 -  5) =     11.36892  eV     1   --> A_1  D_1  S_1  
     e(  6 -  6) =     11.59852  eV     1   --> A_1  D_1  S_1  
     e(  7 -  7) =     12.86331  eV     1   --> B_2  D_4  S_4  
     e(  8 -  8) =     13.54579  eV     1   --> B_1  D_3  S_3  
     e(  9 -  9) =     13.92650  eV     1   --> A_2  D_2  S_2  
     e( 10 - 10) =     19.75213  eV     1   --> B_2  D_4  S_4  
     e( 11 - 11) =     21.12129  eV     1   --> A_1  D_1  S_1  
     e( 12 - 12) =     23.13402  eV     1   --> A_1  D_1  S_1  
     e( 13 - 13) =     30.34671  eV     1   --> B_1  D_3  S_3  
     e( 14 - 14) =     34.48266  eV     1   --> A_1  D_1  S_1  

 **************************************************************************
 
     BANDS        :      1.34s CPU      1.59s WALL

 
   This run was terminated on:  10: 4: 0   4Jun2024            

=------------------------------------------------------------------------------=
   JOB DONE.
=------------------------------------------------------------------------------=
