
     Program PWSCF v.7.2 starts on  4Jun2024 at 10: 3:56 

     This program is part of the open-source Quantum ESPRESSO suite
     for quantum simulation of materials; please cite
         "P. Giannozzi et al., J. Phys.:Condens. Matter 21 395502 (2009);
         "P. Giannozzi et al., J. Phys.:Condens. Matter 29 465901 (2017);
         "P. Giannozzi et al., J. Chem. Phys. 152 154105 (2020);
          URL http://www.quantum-espresso.org", 
     in publications or presentations arising from this work. More details at
     http://www.quantum-espresso.org/quote

     Parallel version (MPI), running on    16 processors

     MPI processes distributed on     1 nodes
     179781 MiB available memory on the printing compute node when the environment starts
 
     Reading input from nscf.in
Warning: card &IONS ignored
Warning: card / ignored
Warning: card &CELL ignored
Warning: card / ignored

     Current dimensions of program PWSCF are:
     Max number of different atomic species (ntypx) = 10
     Max number of k-points (npk) =  40000
     Max angular momentum in pseudopotentials (lmaxx) =  4

     Atomic positions and unit cell read from directory:
     ./output/opt.save/
 

     File ./output/opt.update deleted, as requested

     File ./output/opt.bfgs deleted, as requested
     Message from routine setup:
     using ibrav=0 with symmetry is DISCOURAGED, use correct ibrav instead
 
     K-points division:     npool     =       2
     R & G space division:  proc/nbgrp/npool/nimage =       8
     Subspace diagonalization in iterative solution of the eigenvalue problem:
     a serial algorithm will be used

 
     Parallelization info
     --------------------
     sticks:   dense  smooth     PW     G-vecs:    dense   smooth      PW
     Min          64      31     10                  977      340      66
     Max          65      32     11                  979      344      69
     Sum         517     253     85                 7823     2741     537
 
     Using Slab Decomposition
 


     bravais-lattice index     =            0
     lattice parameter (alat)  =       4.8698  a.u.
     unit-cell volume          =      81.9855 (a.u.)^3
     number of atoms/cell      =            1
     number of atomic types    =            1
     number of electrons       =        19.00
     number of Kohn-Sham states=           14
     kinetic-energy cutoff     =      40.0000  Ry
     charge density cutoff     =     320.0000  Ry
     Exchange-correlation= SLA  PW   PBE  PBE
                           (   1   4   3   4   0   0   0)

     celldm(1)=   4.869781  celldm(2)=   0.000000  celldm(3)=   0.000000
     celldm(4)=   0.000000  celldm(5)=   0.000000  celldm(6)=   0.000000

     crystal axes: (cart. coord. in units of alat)
               a(1) = (  -0.000000   0.708043   0.708043 )  
               a(2) = (   0.708043  -0.000000   0.708043 )  
               a(3) = (   0.708043   0.708043  -0.000000 )  

     reciprocal axes: (cart. coord. in units 2 pi/alat)
               b(1) = ( -0.706172  0.706172  0.706172 )  
               b(2) = (  0.706172 -0.706172  0.706172 )  
               b(3) = (  0.706172  0.706172 -0.706172 )  


     PseudoPot. # 1 for Cu read from file:
     ../../pseudo/cu_pbe_v1.2.uspp.F.UPF
     MD5 check sum: 6e991ff952a84172a2a52a1c1e996048
     Pseudo is Ultrasoft + core correction, Zval = 19.0
     Generated by new atomic code, or converted to UPF format
     Using radial grid of  867 points,  6 beta functions with: 
                l(1) =   0
                l(2) =   0
                l(3) =   1
                l(4) =   1
                l(5) =   2
                l(6) =   2
     Q(r) pseudized with  8 coefficients,  rinner =    1.150   1.150   1.150
                                                       1.150   1.150

     atomic species   valence    mass     pseudopotential
        Cu            19.00    63.54600     Cu( 1.00)

     Starting magnetic structure 
     atomic species   magnetization
        Cu           1.000

     48 Sym. Ops., with inversion, found


                                    s                        frac. trans.

      isym =  1     identity                                     

 cryst.   s( 1) = (     1          0          0      )
                  (     0          1          0      )
                  (     0          0          1      )

 cart.    s( 1) = (  1.0000000  0.0000000  0.0000000 )
                  (  0.0000000  1.0000000  0.0000000 )
                  ( -0.0000000 -0.0000000  1.0000000 )


      isym =  2     180 deg rotation - cart. axis [0,0,1]        

 cryst.   s( 2) = (     0          1         -1      )
                  (     1          0         -1      )
                  (     0          0         -1      )

 cart.    s( 2) = ( -1.0000000  0.0000000  0.0000000 )
                  (  0.0000000 -1.0000000  0.0000000 )
                  (  0.0000000  0.0000000  1.0000000 )


      isym =  3     180 deg rotation - cart. axis [0,1,0]        

 cryst.   s( 3) = (     0         -1          1      )
                  (     0         -1          0      )
                  (     1         -1          0      )

 cart.    s( 3) = ( -1.0000000  0.0000000  0.0000000 )
                  (  0.0000000  1.0000000  0.0000000 )
                  (  0.0000000 -0.0000000 -1.0000000 )


      isym =  4     180 deg rotation - cart. axis [1,0,0]        

 cryst.   s( 4) = (    -1          0          0      )
                  (    -1          0          1      )
                  (    -1          1          0      )

 cart.    s( 4) = (  1.0000000  0.0000000  0.0000000 )
                  (  0.0000000 -1.0000000  0.0000000 )
                  ( -0.0000000  0.0000000 -1.0000000 )


      isym =  5     180 deg rotation - cart. axis [1,1,0]        

 cryst.   s( 5) = (    -1          0          1      )
                  (     0         -1          1      )
                  (     0          0          1      )

 cart.    s( 5) = (  0.0000000  1.0000000  0.0000000 )
                  (  1.0000000  0.0000000  0.0000000 )
                  ( -0.0000000 -0.0000000 -1.0000000 )


      isym =  6     180 deg rotation - cart. axis [1,-1,0]       

 cryst.   s( 6) = (     0         -1          0      )
                  (    -1          0          0      )
                  (     0          0         -1      )

 cart.    s( 6) = (  0.0000000 -1.0000000  0.0000000 )
                  ( -1.0000000  0.0000000  0.0000000 )
                  (  0.0000000  0.0000000 -1.0000000 )


      isym =  7      90 deg rotation - cart. axis [0,0,-1]       

 cryst.   s( 7) = (     0          1          0      )
                  (     0          1         -1      )
                  (    -1          1          0      )

 cart.    s( 7) = (  0.0000000  1.0000000  0.0000000 )
                  ( -1.0000000  0.0000000  0.0000000 )
                  (  0.0000000 -0.0000000  1.0000000 )


      isym =  8      90 deg rotation - cart. axis [0,0,1]        

 cryst.   s( 8) = (     1          0         -1      )
                  (     1          0          0      )
                  (     1         -1          0      )

 cart.    s( 8) = (  0.0000000 -1.0000000  0.0000000 )
                  (  1.0000000  0.0000000  0.0000000 )
                  ( -0.0000000  0.0000000  1.0000000 )


      isym =  9     180 deg rotation - cart. axis [1,0,1]        

 cryst.   s( 9) = (    -1          1          0      )
                  (     0          1          0      )
                  (     0          1         -1      )

 cart.    s( 9) = (  0.0000000  0.0000000  1.0000000 )
                  (  0.0000000 -1.0000000  0.0000000 )
                  (  1.0000000  0.0000000 -0.0000000 )


      isym = 10     180 deg rotation - cart. axis [-1,0,1]       

 cryst.   s(10) = (     0          0         -1      )
                  (     0         -1          0      )
                  (    -1          0          0      )

 cart.    s(10) = (  0.0000000  0.0000000 -1.0000000 )
                  (  0.0000000 -1.0000000  0.0000000 )
                  ( -1.0000000  0.0000000  0.0000000 )


      isym = 11      90 deg rotation - cart. axis [0,1,0]        

 cryst.   s(11) = (     0          0          1      )
                  (    -1          0          1      )
                  (     0         -1          1      )

 cart.    s(11) = (  0.0000000  0.0000000  1.0000000 )
                  (  0.0000000  1.0000000  0.0000000 )
                  ( -1.0000000 -0.0000000 -0.0000000 )


      isym = 12      90 deg rotation - cart. axis [0,-1,0]       

 cryst.   s(12) = (     1         -1          0      )
                  (     1          0         -1      )
                  (     1          0          0      )

 cart.    s(12) = (  0.0000000  0.0000000 -1.0000000 )
                  (  0.0000000  1.0000000  0.0000000 )
                  (  1.0000000 -0.0000000  0.0000000 )


      isym = 13     180 deg rotation - cart. axis [0,1,1]        

 cryst.   s(13) = (     1          0          0      )
                  (     1         -1          0      )
                  (     1          0         -1      )

 cart.    s(13) = ( -1.0000000  0.0000000  0.0000000 )
                  (  0.0000000  0.0000000  1.0000000 )
                  (  0.0000000  1.0000000 -0.0000000 )


      isym = 14     180 deg rotation - cart. axis [0,1,-1]       

 cryst.   s(14) = (    -1          0          0      )
                  (     0          0         -1      )
                  (     0         -1          0      )

 cart.    s(14) = ( -1.0000000  0.0000000  0.0000000 )
                  (  0.0000000  0.0000000 -1.0000000 )
                  (  0.0000000 -1.0000000  0.0000000 )


      isym = 15      90 deg rotation - cart. axis [-1,0,0]       

 cryst.   s(15) = (     0         -1          1      )
                  (     0          0          1      )
                  (    -1          0          1      )

 cart.    s(15) = (  1.0000000  0.0000000  0.0000000 )
                  (  0.0000000  0.0000000  1.0000000 )
                  ( -0.0000000 -1.0000000 -0.0000000 )


      isym = 16      90 deg rotation - cart. axis [1,0,0]        

 cryst.   s(16) = (     0          1         -1      )
                  (    -1          1          0      )
                  (     0          1          0      )

 cart.    s(16) = (  1.0000000  0.0000000  0.0000000 )
                  (  0.0000000  0.0000000 -1.0000000 )
                  ( -0.0000000  1.0000000  0.0000000 )


      isym = 17     120 deg rotation - cart. axis [-1,-1,-1]     

 cryst.   s(17) = (     0          0          1      )
                  (     1          0          0      )
                  (     0          1          0      )

 cart.    s(17) = (  0.0000000  1.0000000  0.0000000 )
                  (  0.0000000  0.0000000  1.0000000 )
                  (  1.0000000 -0.0000000 -0.0000000 )


      isym = 18     120 deg rotation - cart. axis [-1,1,1]       

 cryst.   s(18) = (     1         -1          0      )
                  (     0         -1          1      )
                  (     0         -1          0      )

 cart.    s(18) = (  0.0000000 -1.0000000  0.0000000 )
                  (  0.0000000  0.0000000  1.0000000 )
                  ( -1.0000000  0.0000000 -0.0000000 )


      isym = 19     120 deg rotation - cart. axis [1,1,-1]       

 cryst.   s(19) = (    -1          1          0      )
                  (    -1          0          0      )
                  (    -1          0          1      )

 cart.    s(19) = (  0.0000000  1.0000000  0.0000000 )
                  (  0.0000000  0.0000000 -1.0000000 )
                  ( -1.0000000 -0.0000000  0.0000000 )


      isym = 20     120 deg rotation - cart. axis [1,-1,1]       

 cryst.   s(20) = (     0          0         -1      )
                  (     0          1         -1      )
                  (     1          0         -1      )

 cart.    s(20) = (  0.0000000 -1.0000000  0.0000000 )
                  (  0.0000000  0.0000000 -1.0000000 )
                  (  1.0000000  0.0000000  0.0000000 )


      isym = 21     120 deg rotation - cart. axis [1,1,1]        

 cryst.   s(21) = (     0          1          0      )
                  (     0          0          1      )
                  (     1          0          0      )

 cart.    s(21) = (  0.0000000  0.0000000  1.0000000 )
                  (  1.0000000  0.0000000  0.0000000 )
                  ( -0.0000000  1.0000000 -0.0000000 )


      isym = 22     120 deg rotation - cart. axis [-1,1,-1]      

 cryst.   s(22) = (    -1          0          1      )
                  (    -1          1          0      )
                  (    -1          0          0      )

 cart.    s(22) = (  0.0000000  0.0000000  1.0000000 )
                  ( -1.0000000  0.0000000  0.0000000 )
                  (  0.0000000 -1.0000000 -0.0000000 )


      isym = 23     120 deg rotation - cart. axis [1,-1,-1]      

 cryst.   s(23) = (     1          0         -1      )
                  (     0          0         -1      )
                  (     0          1         -1      )

 cart.    s(23) = (  0.0000000  0.0000000 -1.0000000 )
                  ( -1.0000000  0.0000000  0.0000000 )
                  (  0.0000000  1.0000000  0.0000000 )


      isym = 24     120 deg rotation - cart. axis [-1,-1,1]      

 cryst.   s(24) = (     0         -1          0      )
                  (     1         -1          0      )
                  (     0         -1          1      )

 cart.    s(24) = (  0.0000000  0.0000000 -1.0000000 )
                  (  1.0000000  0.0000000  0.0000000 )
                  ( -0.0000000 -1.0000000  0.0000000 )


      isym = 25     inversion                                    

 cryst.   s(25) = (    -1          0          0      )
                  (     0         -1          0      )
                  (     0          0         -1      )

 cart.    s(25) = ( -1.0000000  0.0000000  0.0000000 )
                  (  0.0000000 -1.0000000  0.0000000 )
                  (  0.0000000  0.0000000 -1.0000000 )


      isym = 26     inv. 180 deg rotation - cart. axis [0,0,1]   

 cryst.   s(26) = (     0         -1          1      )
                  (    -1          0          1      )
                  (     0          0          1      )

 cart.    s(26) = (  1.0000000  0.0000000  0.0000000 )
                  (  0.0000000  1.0000000  0.0000000 )
                  ( -0.0000000 -0.0000000 -1.0000000 )


      isym = 27     inv. 180 deg rotation - cart. axis [0,1,0]   

 cryst.   s(27) = (     0          1         -1      )
                  (     0          1          0      )
                  (    -1          1          0      )

 cart.    s(27) = (  1.0000000  0.0000000  0.0000000 )
                  (  0.0000000 -1.0000000  0.0000000 )
                  ( -0.0000000  0.0000000  1.0000000 )


      isym = 28     inv. 180 deg rotation - cart. axis [1,0,0]   

 cryst.   s(28) = (     1          0          0      )
                  (     1          0         -1      )
                  (     1         -1          0      )

 cart.    s(28) = ( -1.0000000  0.0000000  0.0000000 )
                  (  0.0000000  1.0000000  0.0000000 )
                  (  0.0000000 -0.0000000  1.0000000 )


      isym = 29     inv. 180 deg rotation - cart. axis [1,1,0]   

 cryst.   s(29) = (     1          0         -1      )
                  (     0          1         -1      )
                  (     0          0         -1      )

 cart.    s(29) = (  0.0000000 -1.0000000  0.0000000 )
                  ( -1.0000000  0.0000000  0.0000000 )
                  (  0.0000000  0.0000000  1.0000000 )


      isym = 30     inv. 180 deg rotation - cart. axis [1,-1,0]  

 cryst.   s(30) = (     0          1          0      )
                  (     1          0          0      )
                  (     0          0          1      )

 cart.    s(30) = (  0.0000000  1.0000000  0.0000000 )
                  (  1.0000000  0.0000000  0.0000000 )
                  ( -0.0000000 -0.0000000  1.0000000 )


      isym = 31     inv.  90 deg rotation - cart. axis [0,0,-1]  

 cryst.   s(31) = (     0         -1          0      )
                  (     0         -1          1      )
                  (     1         -1          0      )

 cart.    s(31) = (  0.0000000 -1.0000000  0.0000000 )
                  (  1.0000000  0.0000000  0.0000000 )
                  ( -0.0000000  0.0000000 -1.0000000 )


      isym = 32     inv.  90 deg rotation - cart. axis [0,0,1]   

 cryst.   s(32) = (    -1          0          1      )
                  (    -1          0          0      )
                  (    -1          1          0      )

 cart.    s(32) = (  0.0000000  1.0000000  0.0000000 )
                  ( -1.0000000  0.0000000  0.0000000 )
                  (  0.0000000 -0.0000000 -1.0000000 )


      isym = 33     inv. 180 deg rotation - cart. axis [1,0,1]   

 cryst.   s(33) = (     1         -1          0      )
                  (     0         -1          0      )
                  (     0         -1          1      )

 cart.    s(33) = (  0.0000000  0.0000000 -1.0000000 )
                  (  0.0000000  1.0000000  0.0000000 )
                  ( -1.0000000 -0.0000000  0.0000000 )


      isym = 34     inv. 180 deg rotation - cart. axis [-1,0,1]  

 cryst.   s(34) = (     0          0          1      )
                  (     0          1          0      )
                  (     1          0          0      )

 cart.    s(34) = (  0.0000000  0.0000000  1.0000000 )
                  (  0.0000000  1.0000000  0.0000000 )
                  (  1.0000000 -0.0000000 -0.0000000 )


      isym = 35     inv.  90 deg rotation - cart. axis [0,1,0]   

 cryst.   s(35) = (     0          0         -1      )
                  (     1          0         -1      )
                  (     0          1         -1      )

 cart.    s(35) = (  0.0000000  0.0000000 -1.0000000 )
                  (  0.0000000 -1.0000000  0.0000000 )
                  (  1.0000000  0.0000000  0.0000000 )


      isym = 36     inv.  90 deg rotation - cart. axis [0,-1,0]  

 cryst.   s(36) = (    -1          1          0      )
                  (    -1          0          1      )
                  (    -1          0          0      )

 cart.    s(36) = (  0.0000000  0.0000000  1.0000000 )
                  (  0.0000000 -1.0000000  0.0000000 )
                  ( -1.0000000  0.0000000 -0.0000000 )


      isym = 37     inv. 180 deg rotation - cart. axis [0,1,1]   

 cryst.   s(37) = (    -1          0          0      )
                  (    -1          1          0      )
                  (    -1          0          1      )

 cart.    s(37) = (  1.0000000  0.0000000  0.0000000 )
                  (  0.0000000  0.0000000 -1.0000000 )
                  ( -0.0000000 -1.0000000  0.0000000 )


      isym = 38     inv. 180 deg rotation - cart. axis [0,1,-1]  

 cryst.   s(38) = (     1          0          0      )
                  (     0          0          1      )
                  (     0          1          0      )

 cart.    s(38) = (  1.0000000  0.0000000  0.0000000 )
                  (  0.0000000  0.0000000  1.0000000 )
                  ( -0.0000000  1.0000000 -0.0000000 )


      isym = 39     inv.  90 deg rotation - cart. axis [-1,0,0]  

 cryst.   s(39) = (     0          1         -1      )
                  (     0          0         -1      )
                  (     1          0         -1      )

 cart.    s(39) = ( -1.0000000  0.0000000  0.0000000 )
                  (  0.0000000  0.0000000 -1.0000000 )
                  (  0.0000000  1.0000000  0.0000000 )


      isym = 40     inv.  90 deg rotation - cart. axis [1,0,0]   

 cryst.   s(40) = (     0         -1          1      )
                  (     1         -1          0      )
                  (     0         -1          0      )

 cart.    s(40) = ( -1.0000000  0.0000000  0.0000000 )
                  (  0.0000000  0.0000000  1.0000000 )
                  (  0.0000000 -1.0000000 -0.0000000 )


      isym = 41     inv. 120 deg rotation - cart. axis [-1,-1,-1]

 cryst.   s(41) = (     0          0         -1      )
                  (    -1          0          0      )
                  (     0         -1          0      )

 cart.    s(41) = (  0.0000000 -1.0000000  0.0000000 )
                  (  0.0000000  0.0000000 -1.0000000 )
                  ( -1.0000000  0.0000000  0.0000000 )


      isym = 42     inv. 120 deg rotation - cart. axis [-1,1,1]  

 cryst.   s(42) = (    -1          1          0      )
                  (     0          1         -1      )
                  (     0          1          0      )

 cart.    s(42) = (  0.0000000  1.0000000  0.0000000 )
                  (  0.0000000  0.0000000 -1.0000000 )
                  (  1.0000000 -0.0000000  0.0000000 )


      isym = 43     inv. 120 deg rotation - cart. axis [1,1,-1]  

 cryst.   s(43) = (     1         -1          0      )
                  (     1          0          0      )
                  (     1          0         -1      )

 cart.    s(43) = (  0.0000000 -1.0000000  0.0000000 )
                  (  0.0000000  0.0000000  1.0000000 )
                  (  1.0000000  0.0000000 -0.0000000 )


      isym = 44     inv. 120 deg rotation - cart. axis [1,-1,1]  

 cryst.   s(44) = (     0          0          1      )
                  (     0         -1          1      )
                  (    -1          0          1      )

 cart.    s(44) = (  0.0000000  1.0000000  0.0000000 )
                  (  0.0000000  0.0000000  1.0000000 )
                  ( -1.0000000 -0.0000000 -0.0000000 )


      isym = 45     inv. 120 deg rotation - cart. axis [1,1,1]   

 cryst.   s(45) = (     0         -1          0      )
                  (     0          0         -1      )
                  (    -1          0          0      )

 cart.    s(45) = (  0.0000000  0.0000000 -1.0000000 )
                  ( -1.0000000  0.0000000  0.0000000 )
                  (  0.0000000 -1.0000000  0.0000000 )


      isym = 46     inv. 120 deg rotation - cart. axis [-1,1,-1] 

 cryst.   s(46) = (     1          0         -1      )
                  (     1         -1          0      )
                  (     1          0          0      )

 cart.    s(46) = (  0.0000000  0.0000000 -1.0000000 )
                  (  1.0000000  0.0000000  0.0000000 )
                  ( -0.0000000  1.0000000  0.0000000 )


      isym = 47     inv. 120 deg rotation - cart. axis [1,-1,-1] 

 cryst.   s(47) = (    -1          0          1      )
                  (     0          0          1      )
                  (     0         -1          1      )

 cart.    s(47) = (  0.0000000  0.0000000  1.0000000 )
                  (  1.0000000  0.0000000  0.0000000 )
                  ( -0.0000000 -1.0000000 -0.0000000 )


      isym = 48     inv. 120 deg rotation - cart. axis [-1,-1,1] 

 cryst.   s(48) = (     0          1          0      )
                  (    -1          1          0      )
                  (     0          1         -1      )

 cart.    s(48) = (  0.0000000  0.0000000  1.0000000 )
                  ( -1.0000000  0.0000000  0.0000000 )
                  (  0.0000000  1.0000000 -0.0000000 )


   Cartesian axes

     site n.     atom                  positions (alat units)
         1           Cu  tau(   1) = (   0.0000000   0.0000000   0.0000000  )

   Crystallographic axes

     site n.     atom                  positions (cryst. coord.)
         1           Cu  tau(   1) = (  0.0000000  0.0000000  0.0000000  )

     number of k points=   100  Methfessel-Paxton smearing, width (Ry)=  0.0100
                       cart. coord. in units 2pi/alat
        k(    1) = (   0.0000000   0.0000000   0.0000000), wk =   0.0100000
        k(    2) = (   0.0000000   0.0307029   0.0000000), wk =   0.0100000
        k(    3) = (   0.0000000   0.0614059   0.0000000), wk =   0.0100000
        k(    4) = (   0.0000000   0.0921088   0.0000000), wk =   0.0100000
        k(    5) = (   0.0000000   0.1228132   0.0000000), wk =   0.0100000
        k(    6) = (   0.0000000   0.1535161   0.0000000), wk =   0.0100000
        k(    7) = (   0.0000000   0.1842190   0.0000000), wk =   0.0100000
        k(    8) = (   0.0000000   0.2149220   0.0000000), wk =   0.0100000
        k(    9) = (   0.0000000   0.2456249   0.0000000), wk =   0.0100000
        k(   10) = (   0.0000000   0.2763279   0.0000000), wk =   0.0100000
        k(   11) = (   0.0000000   0.3070308   0.0000000), wk =   0.0100000
        k(   12) = (   0.0000000   0.3377337   0.0000000), wk =   0.0100000
        k(   13) = (   0.0000000   0.3684381   0.0000000), wk =   0.0100000
        k(   14) = (   0.0000000   0.3991410   0.0000000), wk =   0.0100000
        k(   15) = (   0.0000000   0.4298440   0.0000000), wk =   0.0100000
        k(   16) = (   0.0000000   0.4605469   0.0000000), wk =   0.0100000
        k(   17) = (   0.0000000   0.4912499   0.0000000), wk =   0.0100000
        k(   18) = (   0.0000000   0.5219528   0.0000000), wk =   0.0100000
        k(   19) = (   0.0000000   0.5526557   0.0000000), wk =   0.0100000
        k(   20) = (   0.0000000   0.5833587   0.0000000), wk =   0.0100000
        k(   21) = (   0.0000000   0.6140630   0.0000000), wk =   0.0100000
        k(   22) = (   0.0000000   0.6447660   0.0000000), wk =   0.0100000
        k(   23) = (   0.0000000   0.6754689   0.0000000), wk =   0.0100000
        k(   24) = (   0.0000000   0.7061718   0.0000000), wk =   0.0100000
        k(   25) = (   0.0320983   0.7061718  -0.0000000), wk =   0.0100000
        k(   26) = (   0.0641981   0.7061718  -0.0000000), wk =   0.0100000
        k(   27) = (   0.0962964   0.7061718   0.0000000), wk =   0.0100000
        k(   28) = (   0.1283948   0.7061718   0.0000000), wk =   0.0100000
        k(   29) = (   0.1604931   0.7061718   0.0000000), wk =   0.0100000
        k(   30) = (   0.1925928   0.7061718   0.0000000), wk =   0.0100000
        k(   31) = (   0.2246912   0.7061718   0.0000000), wk =   0.0100000
        k(   32) = (   0.2567895   0.7061718  -0.0000000), wk =   0.0100000
        k(   33) = (   0.2888878   0.7061718   0.0000000), wk =   0.0100000
        k(   34) = (   0.3209876   0.7061718   0.0000000), wk =   0.0100000
        k(   35) = (   0.3530859   0.7061718   0.0000000), wk =   0.0100000
        k(   36) = (   0.3530859   0.6854019   0.0207699), wk =   0.0100000
        k(   37) = (   0.3530859   0.6646320   0.0415399), wk =   0.0100000
        k(   38) = (   0.3530859   0.6438621   0.0623098), wk =   0.0100000
        k(   39) = (   0.3530859   0.6230921   0.0830797), wk =   0.0100000
        k(   40) = (   0.3530859   0.6023236   0.1038482), wk =   0.0100000
        k(   41) = (   0.3530859   0.5815537   0.1246181), wk =   0.0100000
        k(   42) = (   0.3530859   0.5607838   0.1453881), wk =   0.0100000
        k(   43) = (   0.3530859   0.5400138   0.1661580), wk =   0.0100000
        k(   44) = (   0.3530859   0.5192439   0.1869279), wk =   0.0100000
        k(   45) = (   0.3530859   0.4984740   0.2076979), wk =   0.0100000
        k(   46) = (   0.3530859   0.4777041   0.2284678), wk =   0.0100000
        k(   47) = (   0.3530859   0.4569341   0.2492377), wk =   0.0100000
        k(   48) = (   0.3530859   0.4361656   0.2700062), wk =   0.0100000
        k(   49) = (   0.3530859   0.4153957   0.2907761), wk =   0.0100000
        k(   50) = (   0.3530859   0.3946258   0.3115461), wk =   0.0100000
        k(   51) = (   0.3530859   0.3738558   0.3323160), wk =   0.0100000
        k(   52) = (   0.3530859   0.3530859   0.3530859), wk =   0.0100000
        k(   53) = (   0.3362720   0.3362720   0.3362720), wk =   0.0100000
        k(   54) = (   0.3194587   0.3194587   0.3194587), wk =   0.0100000
        k(   55) = (   0.3026448   0.3026448   0.3026448), wk =   0.0100000
        k(   56) = (   0.2858315   0.2858315   0.2858315), wk =   0.0100000
        k(   57) = (   0.2690176   0.2690176   0.2690176), wk =   0.0100000
        k(   58) = (   0.2522043   0.2522043   0.2522043), wk =   0.0100000
        k(   59) = (   0.2353904   0.2353904   0.2353904), wk =   0.0100000
        k(   60) = (   0.2185771   0.2185771   0.2185771), wk =   0.0100000
        k(   61) = (   0.2017632   0.2017632   0.2017632), wk =   0.0100000
        k(   62) = (   0.1849499   0.1849499   0.1849499), wk =   0.0100000
        k(   63) = (   0.1681360   0.1681360   0.1681360), wk =   0.0100000
        k(   64) = (   0.1513227   0.1513227   0.1513227), wk =   0.0100000
        k(   65) = (   0.1345088   0.1345088   0.1345088), wk =   0.0100000
        k(   66) = (   0.1176955   0.1176955   0.1176955), wk =   0.0100000
        k(   67) = (   0.1008816   0.1008816   0.1008816), wk =   0.0100000
        k(   68) = (   0.0840683   0.0840683   0.0840683), wk =   0.0100000
        k(   69) = (   0.0672544   0.0672544   0.0672544), wk =   0.0100000
        k(   70) = (   0.0504411   0.0504411   0.0504411), wk =   0.0100000
        k(   71) = (   0.0336272   0.0336272   0.0336272), wk =   0.0100000
        k(   72) = (   0.0168140   0.0168140   0.0168140), wk =   0.0100000
        k(   73) = (   0.0000000   0.0000000   0.0000000), wk =   0.0100000
        k(   74) = (   0.0196160   0.0196160   0.0000000), wk =   0.0100000
        k(   75) = (   0.0392321   0.0392321   0.0000000), wk =   0.0100000
        k(   76) = (   0.0588474   0.0588474   0.0000007), wk =   0.0100000
        k(   77) = (   0.0784635   0.0784635   0.0000007), wk =   0.0100000
        k(   78) = (   0.0980795   0.0980795  -0.0000007), wk =   0.0100000
        k(   79) = (   0.1176955   0.1176955  -0.0000007), wk =   0.0100000
        k(   80) = (   0.1373109   0.1373109   0.0000000), wk =   0.0100000
        k(   81) = (   0.1569269   0.1569269   0.0000000), wk =   0.0100000
        k(   82) = (   0.1765430   0.1765430   0.0000000), wk =   0.0100000
        k(   83) = (   0.1961590   0.1961590   0.0000000), wk =   0.0100000
        k(   84) = (   0.2157750   0.2157750   0.0000000), wk =   0.0100000
        k(   85) = (   0.2353904   0.2353904   0.0000007), wk =   0.0100000
        k(   86) = (   0.2550064   0.2550064   0.0000007), wk =   0.0100000
        k(   87) = (   0.2746225   0.2746225  -0.0000007), wk =   0.0100000
        k(   88) = (   0.2942385   0.2942385  -0.0000007), wk =   0.0100000
        k(   89) = (   0.3138538   0.3138538   0.0000000), wk =   0.0100000
        k(   90) = (   0.3334699   0.3334699   0.0000000), wk =   0.0100000
        k(   91) = (   0.3530859   0.3530859   0.0000000), wk =   0.0100000
        k(   92) = (   0.3727020   0.3727020   0.0000000), wk =   0.0100000
        k(   93) = (   0.3923180   0.3923180   0.0000000), wk =   0.0100000
        k(   94) = (   0.4119333   0.4119333   0.0000007), wk =   0.0100000
        k(   95) = (   0.4315494   0.4315494   0.0000007), wk =   0.0100000
        k(   96) = (   0.4511654   0.4511654  -0.0000007), wk =   0.0100000
        k(   97) = (   0.4707815   0.4707815  -0.0000007), wk =   0.0100000
        k(   98) = (   0.4903968   0.4903968   0.0000000), wk =   0.0100000
        k(   99) = (   0.5100128   0.5100128   0.0000000), wk =   0.0100000
        k(  100) = (   0.5296289   0.5296289   0.0000000), wk =   0.0100000

                       cryst. coord.
        k(    1) = (   0.0000000   0.0000000   0.0000000), wk =   0.0100000
        k(    2) = (   0.0217390  -0.0000000   0.0217390), wk =   0.0100000
        k(    3) = (   0.0434780  -0.0000000   0.0434780), wk =   0.0100000
        k(    4) = (   0.0652170  -0.0000000   0.0652170), wk =   0.0100000
        k(    5) = (   0.0869570  -0.0000000   0.0869570), wk =   0.0100000
        k(    6) = (   0.1086960  -0.0000000   0.1086960), wk =   0.0100000
        k(    7) = (   0.1304350  -0.0000000   0.1304350), wk =   0.0100000
        k(    8) = (   0.1521740  -0.0000000   0.1521740), wk =   0.0100000
        k(    9) = (   0.1739130  -0.0000000   0.1739130), wk =   0.0100000
        k(   10) = (   0.1956520  -0.0000000   0.1956520), wk =   0.0100000
        k(   11) = (   0.2173910  -0.0000000   0.2173910), wk =   0.0100000
        k(   12) = (   0.2391300  -0.0000000   0.2391300), wk =   0.0100000
        k(   13) = (   0.2608700  -0.0000000   0.2608700), wk =   0.0100000
        k(   14) = (   0.2826090  -0.0000000   0.2826090), wk =   0.0100000
        k(   15) = (   0.3043480  -0.0000000   0.3043480), wk =   0.0100000
        k(   16) = (   0.3260870  -0.0000000   0.3260870), wk =   0.0100000
        k(   17) = (   0.3478260  -0.0000000   0.3478260), wk =   0.0100000
        k(   18) = (   0.3695650  -0.0000000   0.3695650), wk =   0.0100000
        k(   19) = (   0.3913040  -0.0000000   0.3913040), wk =   0.0100000
        k(   20) = (   0.4130430  -0.0000000   0.4130430), wk =   0.0100000
        k(   21) = (   0.4347830  -0.0000000   0.4347830), wk =   0.0100000
        k(   22) = (   0.4565220  -0.0000000   0.4565220), wk =   0.0100000
        k(   23) = (   0.4782610  -0.0000000   0.4782610), wk =   0.0100000
        k(   24) = (   0.5000000  -0.0000000   0.5000000), wk =   0.0100000
        k(   25) = (   0.5000000   0.0227270   0.5227270), wk =   0.0100000
        k(   26) = (   0.5000000   0.0454550   0.5454550), wk =   0.0100000
        k(   27) = (   0.5000000   0.0681820   0.5681820), wk =   0.0100000
        k(   28) = (   0.5000000   0.0909090   0.5909090), wk =   0.0100000
        k(   29) = (   0.5000000   0.1136360   0.6136360), wk =   0.0100000
        k(   30) = (   0.5000000   0.1363640   0.6363640), wk =   0.0100000
        k(   31) = (   0.5000000   0.1590910   0.6590910), wk =   0.0100000
        k(   32) = (   0.5000000   0.1818180   0.6818180), wk =   0.0100000
        k(   33) = (   0.5000000   0.2045450   0.7045450), wk =   0.0100000
        k(   34) = (   0.5000000   0.2272730   0.7272730), wk =   0.0100000
        k(   35) = (   0.5000000   0.2500000   0.7500000), wk =   0.0100000
        k(   36) = (   0.5000000   0.2647060   0.7352940), wk =   0.0100000
        k(   37) = (   0.5000000   0.2794120   0.7205880), wk =   0.0100000
        k(   38) = (   0.5000000   0.2941180   0.7058820), wk =   0.0100000
        k(   39) = (   0.5000000   0.3088240   0.6911760), wk =   0.0100000
        k(   40) = (   0.5000000   0.3235290   0.6764710), wk =   0.0100000
        k(   41) = (   0.5000000   0.3382350   0.6617650), wk =   0.0100000
        k(   42) = (   0.5000000   0.3529410   0.6470590), wk =   0.0100000
        k(   43) = (   0.5000000   0.3676470   0.6323530), wk =   0.0100000
        k(   44) = (   0.5000000   0.3823530   0.6176470), wk =   0.0100000
        k(   45) = (   0.5000000   0.3970590   0.6029410), wk =   0.0100000
        k(   46) = (   0.5000000   0.4117650   0.5882350), wk =   0.0100000
        k(   47) = (   0.5000000   0.4264710   0.5735290), wk =   0.0100000
        k(   48) = (   0.5000000   0.4411760   0.5588240), wk =   0.0100000
        k(   49) = (   0.5000000   0.4558820   0.5441180), wk =   0.0100000
        k(   50) = (   0.5000000   0.4705880   0.5294120), wk =   0.0100000
        k(   51) = (   0.5000000   0.4852940   0.5147060), wk =   0.0100000
        k(   52) = (   0.5000000   0.5000000   0.5000000), wk =   0.0100000
        k(   53) = (   0.4761900   0.4761900   0.4761900), wk =   0.0100000
        k(   54) = (   0.4523810   0.4523810   0.4523810), wk =   0.0100000
        k(   55) = (   0.4285710   0.4285710   0.4285710), wk =   0.0100000
        k(   56) = (   0.4047620   0.4047620   0.4047620), wk =   0.0100000
        k(   57) = (   0.3809520   0.3809520   0.3809520), wk =   0.0100000
        k(   58) = (   0.3571430   0.3571430   0.3571430), wk =   0.0100000
        k(   59) = (   0.3333330   0.3333330   0.3333330), wk =   0.0100000
        k(   60) = (   0.3095240   0.3095240   0.3095240), wk =   0.0100000
        k(   61) = (   0.2857140   0.2857140   0.2857140), wk =   0.0100000
        k(   62) = (   0.2619050   0.2619050   0.2619050), wk =   0.0100000
        k(   63) = (   0.2380950   0.2380950   0.2380950), wk =   0.0100000
        k(   64) = (   0.2142860   0.2142860   0.2142860), wk =   0.0100000
        k(   65) = (   0.1904760   0.1904760   0.1904760), wk =   0.0100000
        k(   66) = (   0.1666670   0.1666670   0.1666670), wk =   0.0100000
        k(   67) = (   0.1428570   0.1428570   0.1428570), wk =   0.0100000
        k(   68) = (   0.1190480   0.1190480   0.1190480), wk =   0.0100000
        k(   69) = (   0.0952380   0.0952380   0.0952380), wk =   0.0100000
        k(   70) = (   0.0714290   0.0714290   0.0714290), wk =   0.0100000
        k(   71) = (   0.0476190   0.0476190   0.0476190), wk =   0.0100000
        k(   72) = (   0.0238100   0.0238100   0.0238100), wk =   0.0100000
        k(   73) = (   0.0000000   0.0000000   0.0000000), wk =   0.0100000
        k(   74) = (   0.0138890   0.0138890   0.0277780), wk =   0.0100000
        k(   75) = (   0.0277780   0.0277780   0.0555560), wk =   0.0100000
        k(   76) = (   0.0416670   0.0416670   0.0833330), wk =   0.0100000
        k(   77) = (   0.0555560   0.0555560   0.1111110), wk =   0.0100000
        k(   78) = (   0.0694440   0.0694440   0.1388890), wk =   0.0100000
        k(   79) = (   0.0833330   0.0833330   0.1666670), wk =   0.0100000
        k(   80) = (   0.0972220   0.0972220   0.1944440), wk =   0.0100000
        k(   81) = (   0.1111110   0.1111110   0.2222220), wk =   0.0100000
        k(   82) = (   0.1250000   0.1250000   0.2500000), wk =   0.0100000
        k(   83) = (   0.1388890   0.1388890   0.2777780), wk =   0.0100000
        k(   84) = (   0.1527780   0.1527780   0.3055560), wk =   0.0100000
        k(   85) = (   0.1666670   0.1666670   0.3333330), wk =   0.0100000
        k(   86) = (   0.1805560   0.1805560   0.3611110), wk =   0.0100000
        k(   87) = (   0.1944440   0.1944440   0.3888890), wk =   0.0100000
        k(   88) = (   0.2083330   0.2083330   0.4166670), wk =   0.0100000
        k(   89) = (   0.2222220   0.2222220   0.4444440), wk =   0.0100000
        k(   90) = (   0.2361110   0.2361110   0.4722220), wk =   0.0100000
        k(   91) = (   0.2500000   0.2500000   0.5000000), wk =   0.0100000
        k(   92) = (   0.2638890   0.2638890   0.5277780), wk =   0.0100000
        k(   93) = (   0.2777780   0.2777780   0.5555560), wk =   0.0100000
        k(   94) = (   0.2916670   0.2916670   0.5833330), wk =   0.0100000
        k(   95) = (   0.3055560   0.3055560   0.6111110), wk =   0.0100000
        k(   96) = (   0.3194440   0.3194440   0.6388890), wk =   0.0100000
        k(   97) = (   0.3333330   0.3333330   0.6666670), wk =   0.0100000
        k(   98) = (   0.3472220   0.3472220   0.6944440), wk =   0.0100000
        k(   99) = (   0.3611110   0.3611110   0.7222220), wk =   0.0100000
        k(  100) = (   0.3750000   0.3750000   0.7500000), wk =   0.0100000

     Dense  grid:     7823 G-vectors     FFT dimensions: (  27,  27,  27)

     Smooth grid:     2741 G-vectors     FFT dimensions: (  20,  20,  20)

     Dynamical RAM for                 wfc:       0.01 MB

     Dynamical RAM for     wfc (w. buffer):       0.01 MB

     Dynamical RAM for           str. fact:       0.01 MB

     Dynamical RAM for           local pot:       0.00 MB

     Dynamical RAM for          nlocal pot:       0.01 MB

     Dynamical RAM for                qrad:       1.44 MB

     Dynamical RAM for          rho,v,vnew:       0.22 MB

     Dynamical RAM for           G-vectors:       0.06 MB

     Dynamical RAM for          h,s,v(r/c):       0.04 MB

     Dynamical RAM for          <psi|beta>:       0.00 MB

     Dynamical RAM for                 psi:       0.02 MB

     Dynamical RAM for                hpsi:       0.02 MB

     Dynamical RAM for                spsi:       0.02 MB

     Dynamical RAM for      wfcinit/wfcrot:       0.02 MB

     Dynamical RAM for           addusdens:       1.42 MB

     Estimated static dynamical RAM per process >       1.92 MB

     Estimated max dynamical RAM per process >       3.33 MB

     Estimated total dynamical RAM >      53.35 MB

     Check: negative core charge=   -0.000001
     Generating pointlists ...
     new r_m :   0.4130 (alat units)  2.0114 (a.u.) for type    1

     The potential is recalculated from file :
     ./output/opt.save/charge-density

     Starting wfcs are   13 randomized atomic wfcs +    1 random wfcs

     Band Structure Calculation
     Davidson diagonalization with overlap

     Computing kpt #:     1  of   100 on this pool
     total cpu time spent up to now is        0.2 secs

     Computing kpt #:     2  of   100 on this pool
     total cpu time spent up to now is        0.2 secs

     Computing kpt #:     3  of   100 on this pool
     total cpu time spent up to now is        0.2 secs

     Computing kpt #:     4  of   100 on this pool
     total cpu time spent up to now is        0.2 secs

     Computing kpt #:     5  of   100 on this pool
     total cpu time spent up to now is        0.2 secs

     Computing kpt #:     6  of   100 on this pool
     total cpu time spent up to now is        0.2 secs

     Computing kpt #:     7  of   100 on this pool
     total cpu time spent up to now is        0.3 secs

     Computing kpt #:     8  of   100 on this pool
     total cpu time spent up to now is        0.3 secs

     Computing kpt #:     9  of   100 on this pool
     total cpu time spent up to now is        0.3 secs

     Computing kpt #:    10  of   100 on this pool
     total cpu time spent up to now is        0.3 secs

     Computing kpt #:    11  of   100 on this pool
     total cpu time spent up to now is        0.3 secs

     Computing kpt #:    12  of   100 on this pool
     total cpu time spent up to now is        0.3 secs

     Computing kpt #:    13  of   100 on this pool
     total cpu time spent up to now is        0.3 secs

     Computing kpt #:    14  of   100 on this pool
     total cpu time spent up to now is        0.4 secs

     Computing kpt #:    15  of   100 on this pool
     total cpu time spent up to now is        0.4 secs

     Computing kpt #:    16  of   100 on this pool
     total cpu time spent up to now is        0.4 secs

     Computing kpt #:    17  of   100 on this pool
     total cpu time spent up to now is        0.4 secs

     Computing kpt #:    18  of   100 on this pool
     total cpu time spent up to now is        0.4 secs

     Computing kpt #:    19  of   100 on this pool
     total cpu time spent up to now is        0.4 secs

     Computing kpt #:    20  of   100 on this pool
     total cpu time spent up to now is        0.4 secs

     Computing kpt #:    21  of   100 on this pool
     total cpu time spent up to now is        0.5 secs

     Computing kpt #:    22  of   100 on this pool
     total cpu time spent up to now is        0.5 secs

     Computing kpt #:    23  of   100 on this pool
     total cpu time spent up to now is        0.5 secs

     Computing kpt #:    24  of   100 on this pool
     total cpu time spent up to now is        0.5 secs

     Computing kpt #:    25  of   100 on this pool
     total cpu time spent up to now is        0.5 secs

     Computing kpt #:    26  of   100 on this pool
     total cpu time spent up to now is        0.5 secs

     Computing kpt #:    27  of   100 on this pool
     total cpu time spent up to now is        0.5 secs

     Computing kpt #:    28  of   100 on this pool
     total cpu time spent up to now is        0.6 secs

     Computing kpt #:    29  of   100 on this pool
     total cpu time spent up to now is        0.6 secs

     Computing kpt #:    30  of   100 on this pool
     total cpu time spent up to now is        0.6 secs

     Computing kpt #:    31  of   100 on this pool
     total cpu time spent up to now is        0.6 secs

     Computing kpt #:    32  of   100 on this pool
     total cpu time spent up to now is        0.6 secs

     Computing kpt #:    33  of   100 on this pool
     total cpu time spent up to now is        0.6 secs

     Computing kpt #:    34  of   100 on this pool
     total cpu time spent up to now is        0.6 secs

     Computing kpt #:    35  of   100 on this pool
     total cpu time spent up to now is        0.7 secs

     Computing kpt #:    36  of   100 on this pool
     total cpu time spent up to now is        0.7 secs

     Computing kpt #:    37  of   100 on this pool
     total cpu time spent up to now is        0.7 secs

     Computing kpt #:    38  of   100 on this pool
     total cpu time spent up to now is        0.7 secs

     Computing kpt #:    39  of   100 on this pool
     total cpu time spent up to now is        0.7 secs

     Computing kpt #:    40  of   100 on this pool
     total cpu time spent up to now is        0.7 secs

     Computing kpt #:    41  of   100 on this pool
     total cpu time spent up to now is        0.7 secs

     Computing kpt #:    42  of   100 on this pool
     total cpu time spent up to now is        0.8 secs

     Computing kpt #:    43  of   100 on this pool
     total cpu time spent up to now is        0.8 secs

     Computing kpt #:    44  of   100 on this pool
     total cpu time spent up to now is        0.8 secs

     Computing kpt #:    45  of   100 on this pool
     total cpu time spent up to now is        0.8 secs

     Computing kpt #:    46  of   100 on this pool
     total cpu time spent up to now is        0.8 secs

     Computing kpt #:    47  of   100 on this pool
     total cpu time spent up to now is        0.8 secs

     Computing kpt #:    48  of   100 on this pool
     total cpu time spent up to now is        0.8 secs

     Computing kpt #:    49  of   100 on this pool
     total cpu time spent up to now is        0.8 secs

     Computing kpt #:    50  of   100 on this pool
     total cpu time spent up to now is        0.9 secs

     Computing kpt #:    51  of   100 on this pool
     total cpu time spent up to now is        0.9 secs

     Computing kpt #:    52  of   100 on this pool
     total cpu time spent up to now is        0.9 secs

     Computing kpt #:    53  of   100 on this pool
     total cpu time spent up to now is        0.9 secs

     Computing kpt #:    54  of   100 on this pool
     total cpu time spent up to now is        0.9 secs

     Computing kpt #:    55  of   100 on this pool
     total cpu time spent up to now is        0.9 secs

     Computing kpt #:    56  of   100 on this pool
     total cpu time spent up to now is        0.9 secs

     Computing kpt #:    57  of   100 on this pool
     total cpu time spent up to now is        1.0 secs

     Computing kpt #:    58  of   100 on this pool
     total cpu time spent up to now is        1.0 secs

     Computing kpt #:    59  of   100 on this pool
     total cpu time spent up to now is        1.0 secs

     Computing kpt #:    60  of   100 on this pool
     total cpu time spent up to now is        1.0 secs

     Computing kpt #:    61  of   100 on this pool
     total cpu time spent up to now is        1.0 secs

     Computing kpt #:    62  of   100 on this pool
     total cpu time spent up to now is        1.0 secs

     Computing kpt #:    63  of   100 on this pool
     total cpu time spent up to now is        1.0 secs

     Computing kpt #:    64  of   100 on this pool
     total cpu time spent up to now is        1.1 secs

     Computing kpt #:    65  of   100 on this pool
     total cpu time spent up to now is        1.1 secs

     Computing kpt #:    66  of   100 on this pool
     total cpu time spent up to now is        1.1 secs

     Computing kpt #:    67  of   100 on this pool
     total cpu time spent up to now is        1.1 secs

     Computing kpt #:    68  of   100 on this pool
     total cpu time spent up to now is        1.1 secs

     Computing kpt #:    69  of   100 on this pool
     total cpu time spent up to now is        1.1 secs

     Computing kpt #:    70  of   100 on this pool
     total cpu time spent up to now is        1.1 secs

     Computing kpt #:    71  of   100 on this pool
     total cpu time spent up to now is        1.1 secs

     Computing kpt #:    72  of   100 on this pool
     total cpu time spent up to now is        1.2 secs

     Computing kpt #:    73  of   100 on this pool
     total cpu time spent up to now is        1.2 secs

     Computing kpt #:    74  of   100 on this pool
     total cpu time spent up to now is        1.2 secs

     Computing kpt #:    75  of   100 on this pool
     total cpu time spent up to now is        1.2 secs

     Computing kpt #:    76  of   100 on this pool
     total cpu time spent up to now is        1.2 secs

     Computing kpt #:    77  of   100 on this pool
     total cpu time spent up to now is        1.2 secs

     Computing kpt #:    78  of   100 on this pool
     total cpu time spent up to now is        1.2 secs

     Computing kpt #:    79  of   100 on this pool
     total cpu time spent up to now is        1.3 secs

     Computing kpt #:    80  of   100 on this pool
     total cpu time spent up to now is        1.3 secs

     Computing kpt #:    81  of   100 on this pool
     total cpu time spent up to now is        1.3 secs

     Computing kpt #:    82  of   100 on this pool
     total cpu time spent up to now is        1.3 secs

     Computing kpt #:    83  of   100 on this pool
     total cpu time spent up to now is        1.3 secs

     Computing kpt #:    84  of   100 on this pool
     total cpu time spent up to now is        1.3 secs

     Computing kpt #:    85  of   100 on this pool
     total cpu time spent up to now is        1.4 secs

     Computing kpt #:    86  of   100 on this pool
     total cpu time spent up to now is        1.4 secs

     Computing kpt #:    87  of   100 on this pool
     total cpu time spent up to now is        1.4 secs

     Computing kpt #:    88  of   100 on this pool
     total cpu time spent up to now is        1.4 secs

     Computing kpt #:    89  of   100 on this pool
     total cpu time spent up to now is        1.4 secs

     Computing kpt #:    90  of   100 on this pool
     total cpu time spent up to now is        1.4 secs

     Computing kpt #:    91  of   100 on this pool
     total cpu time spent up to now is        1.4 secs

     Computing kpt #:    92  of   100 on this pool
     total cpu time spent up to now is        1.4 secs

     Computing kpt #:    93  of   100 on this pool
     total cpu time spent up to now is        1.5 secs

     Computing kpt #:    94  of   100 on this pool
     total cpu time spent up to now is        1.5 secs

     Computing kpt #:    95  of   100 on this pool
     total cpu time spent up to now is        1.5 secs

     Computing kpt #:    96  of   100 on this pool
     total cpu time spent up to now is        1.5 secs

     Computing kpt #:    97  of   100 on this pool
     total cpu time spent up to now is        1.5 secs

     Computing kpt #:    98  of   100 on this pool
     total cpu time spent up to now is        1.5 secs

     Computing kpt #:    99  of   100 on this pool
     total cpu time spent up to now is        1.5 secs

     Computing kpt #:   100  of   100 on this pool
     total cpu time spent up to now is        1.5 secs

     ethr =  5.26E-11,  avg # of iterations = 21.1

     total cpu time spent up to now is        1.5 secs

     End of band structure calculation

 ------ SPIN UP ------------


          k = 0.0000 0.0000 0.0000 (   339 PWs)   bands (ev):

   -96.9353 -54.2734 -54.2734 -54.2734   6.2887  12.6204  12.6204  12.6204
    13.4161  13.4161  37.8469  40.2500  40.2500  40.2500

          k = 0.0000 0.0307 0.0000 (   335 PWs)   bands (ev):

   -96.9352 -54.2738 -54.2736 -54.2736   6.3113  12.6138  12.6258  12.6258
    13.4100  13.4185  37.7609  39.9607  39.9607  40.1506

          k = 0.0000 0.0614 0.0000 (   335 PWs)   bands (ev):

   -96.9350 -54.2751 -54.2741 -54.2741   6.3790  12.5938  12.6416  12.6416
    13.3920  13.4258  37.5270  39.3179  39.3179  39.8759

          k = 0.0000 0.0921 0.0000 (   335 PWs)   bands (ev):

   -96.9346 -54.2773 -54.2749 -54.2749   6.4915  12.5610  12.6680  12.6680
    13.3625  13.4378  37.1975  38.5566  38.5566  39.4777

          k = 0.0000 0.1228 0.0000 (   335 PWs)   bands (ev):

   -96.9341 -54.2803 -54.2761 -54.2761   6.6480  12.5161  12.7047  12.7047
    13.3226  13.4543  36.8199  37.7617  37.7617  39.0062

          k = 0.0000 0.1535 0.0000 (   339 PWs)   bands (ev):

   -96.9335 -54.2840 -54.2776 -54.2776   6.8476  12.4601  12.7514  12.7514
    13.2735  13.4751  36.4262  36.9633  36.9633  38.4950

          k = 0.0000 0.1842 0.0000 (   339 PWs)   bands (ev):

   -96.9327 -54.2884 -54.2793 -54.2793   7.0888  12.3941  12.8079  12.8079
    13.2174  13.4996  36.0360  36.1751  36.1751  37.9622

          k = 0.0000 0.2149 0.0000 (   347 PWs)   bands (ev):

   -96.9319 -54.2933 -54.2813 -54.2813   7.3697  12.3196  12.8736  12.8736
    13.1568  13.5276  35.4038  35.4038  35.6602  37.4062

          k = 0.0000 0.2456 0.0000 (   347 PWs)   bands (ev):

   -96.9309 -54.2988 -54.2835 -54.2835   7.6877  12.2380  12.9479  12.9479
    13.0952  13.5586  34.6554  34.6554  35.3055  36.8027

          k = 0.0000 0.2763 0.0000 (   347 PWs)   bands (ev):

   -96.9299 -54.3046 -54.2858 -54.2858   8.0385  12.1511  13.0302  13.0302
    13.0374  13.5919  33.9331  33.9331  34.9752  36.0972

          k = 0.0000 0.3070 0.0000 (   347 PWs)   bands (ev):

   -96.9289 -54.3107 -54.2883 -54.2883   8.4166  12.0605  12.9899  13.1195
    13.1195  13.6269  33.2402  33.2402  34.6707  35.2221

          k = 0.0000 0.3377 0.0000 (   347 PWs)   bands (ev):

   -96.9278 -54.3170 -54.2908 -54.2908   8.8137  11.9680  12.9621  13.2147
    13.2147  13.6631  32.5796  32.5796  34.1673  34.3928

          k = 0.0000 0.3684 0.0000 (   347 PWs)   bands (ev):

   -96.9267 -54.3233 -54.2934 -54.2934   9.2174  11.8754  12.9669  13.3143
    13.3143  13.6998  31.9543  31.9543  32.9955  34.1413

          k = 0.0000 0.3991 0.0000 (   347 PWs)   bands (ev):

   -96.9256 -54.3295 -54.2959 -54.2959   9.6096  11.7844  13.0226  13.4169
    13.4169  13.7362  31.3673  31.3673  31.7727  33.9156

          k = 0.0000 0.4298 0.0000 (   347 PWs)   bands (ev):

   -96.9245 -54.3355 -54.2983 -54.2983   9.9667  11.6966  13.1529  13.5206
    13.5206  13.7717  30.5402  30.8217  30.8217  33.7151

          k = 0.0000 0.4605 0.0000 (   343 PWs)   bands (ev):

   -96.9235 -54.3412 -54.3007 -54.3007  10.2640  11.6136  13.3818  13.6233
    13.6233  13.8056  29.3220  30.3207  30.3207  33.5387

          k = 0.0000 0.4912 0.0000 (   351 PWs)   bands (ev):

   -96.9226 -54.3466 -54.3029 -54.3029  10.4849  11.5368  13.7227  13.7227
    13.7231  13.8373  28.1317  29.8673  29.8673  33.3851

          k = 0.0000 0.5220 0.0000 (   351 PWs)   bands (ev):

   -96.9217 -54.3514 -54.3048 -54.3048  10.6310  11.4675  13.8162  13.8162
    13.8662  14.1709  26.9830  29.4655  29.4655  33.2545

          k = 0.0000 0.5527 0.0000 (   343 PWs)   bands (ev):

   -96.9210 -54.3556 -54.3066 -54.3066  10.7180  11.4070  13.8917  13.9013
    13.9013  14.7019  25.8890  29.1183  29.1183  33.1469

          k = 0.0000 0.5834 0.0000 (   351 PWs)   bands (ev):

   -96.9203 -54.3592 -54.3081 -54.3081  10.7644  11.3560  13.9132  13.9754
    13.9754  15.2825  24.8665  28.8288  28.8288  33.0588

          k = 0.0000 0.6141 0.0000 (   343 PWs)   bands (ev):

   -96.9198 -54.3620 -54.3092 -54.3092  10.7868  11.3156  13.9304  14.0360
    14.0360  15.8707  23.9473  28.6001  28.6001  32.9920

          k = 0.0000 0.6448 0.0000 (   343 PWs)   bands (ev):

   -96.9194 -54.3640 -54.3101 -54.3101  10.7959  11.2862  13.9430  14.0810
    14.0810  16.4075  23.1794  28.4348  28.4348  32.9440

          k = 0.0000 0.6755 0.0000 (   342 PWs)   bands (ev):

   -96.9192 -54.3653 -54.3106 -54.3106  10.7990  11.2683  13.9506  14.1087
    14.1087  16.8052  22.6452  28.3348  28.3348  32.9153

          k = 0.0000 0.7062 0.0000 (   342 PWs)   bands (ev):

   -96.9191 -54.3657 -54.3108 -54.3108  10.7995  11.2623  13.9532  14.1181
    14.1181  16.9564  22.4488  28.3013  28.3013  32.9058

          k = 0.0321 0.7062-0.0000 (   342 PWs)   bands (ev):

   -96.9191 -54.3654 -54.3110 -54.3108  10.8111  11.2691  13.9446  14.0713
    14.1181  17.0255  22.4578  28.1282  28.1889  33.1090

          k = 0.0642 0.7062-0.0000 (   346 PWs)   bands (ev):

   -96.9192 -54.3646 -54.3119 -54.3108  10.8454  11.2895  13.9190  13.9431
    14.1181  17.2204  22.4848  27.6787  27.8820  33.6484

          k = 0.0963 0.7062 0.0000 (   348 PWs)   bands (ev):

   -96.9192 -54.3632 -54.3132 -54.3109  10.9010  11.3236  13.7599  13.8771
    14.1182  17.5147  22.5308  27.0738  27.4460  34.4041

          k = 0.1284 0.7062 0.0000 (   348 PWs)   bands (ev):

   -96.9192 -54.3613 -54.3151 -54.3109  10.9755  11.3717  13.5468  13.8202
    14.1183  17.8828  22.5970  26.3961  26.9441  35.2934

          k = 0.1605 0.7062 0.0000 (   358 PWs)   bands (ev):

   -96.9192 -54.3590 -54.3175 -54.3110  11.0651  11.4335  13.3217  13.7505
    14.1184  18.3068  22.6853  25.6888  26.4213  36.2715

          k = 0.1926 0.7062 0.0000 (   356 PWs)   bands (ev):

   -96.9192 -54.3562 -54.3203 -54.3110  11.1649  11.5101  13.0958  13.6714
    14.1186  18.7750  22.7981  24.9754  25.9069  37.3195

          k = 0.2247 0.7062 0.0000 (   356 PWs)   bands (ev):

   -96.9192 -54.3531 -54.3234 -54.3111  11.2681  11.6014  12.8758  13.5878
    14.1187  19.2799  22.9376  24.2674  25.4185  38.4242

          k = 0.2568 0.7062-0.0000 (   356 PWs)   bands (ev):

   -96.9192 -54.3497 -54.3268 -54.3112  11.3665  11.7075  12.6662  13.5069
    14.1188  19.8171  23.1071  23.5714  24.9672  39.5791

          k = 0.2889 0.7062 0.0000 (   352 PWs)   bands (ev):

   -96.9192 -54.3460 -54.3305 -54.3112  11.4492  11.8291  12.4692  13.4376
    14.1188  20.3830  22.8918  23.3073  24.5600  40.7818

          k = 0.3210 0.7062 0.0000 (   360 PWs)   bands (ev):

   -96.9192 -54.3422 -54.3343 -54.3113  11.5050  11.9659  12.2863  13.3901
    14.1189  20.9750  22.2309  23.5344  24.2063  42.0288

          k = 0.3531 0.7062 0.0000 (   360 PWs)   bands (ev):

   -96.9192 -54.3383 -54.3383 -54.3113  11.5249  12.1184  12.1184  13.3731
    14.1189  21.5915  21.5915  23.7060  23.9922  43.3199

          k = 0.3531 0.6854 0.0208 (   360 PWs)   bands (ev):

   -96.9192 -54.3388 -54.3378 -54.3108  11.5323  12.1045  12.1247  13.3732
    14.1097  21.4011  21.4832  23.9209  24.1580  42.9391

          k = 0.3531 0.6646 0.0415 (   356 PWs)   bands (ev):

   -96.9193 -54.3402 -54.3366 -54.3097  11.5546  12.0636  12.1437  13.3722
    14.0838  20.9666  21.2247  24.4293  24.5880  42.3089

          k = 0.3531 0.6439 0.0623 (   362 PWs)   bands (ev):

   -96.9195 -54.3423 -54.3345 -54.3079  11.5914  11.9977  12.1746  13.3657
    14.0459  20.4457  20.9150  25.0719  25.1800  41.6651

          k = 0.3531 0.6231 0.0831 (   362 PWs)   bands (ev):

   -96.9197 -54.3448 -54.3317 -54.3059  11.6429  11.9101  12.2173  13.3476
    14.0036  19.9035  20.6094  25.7855  25.8749  41.0425

          k = 0.3531 0.6023 0.1038 (   362 PWs)   bands (ev):

   -96.9200 -54.3476 -54.3283 -54.3037  11.7086  11.8041  12.2710  13.3119
    13.9657  19.3633  20.3309  26.5459  26.6435  40.4501

          k = 0.3531 0.5816 0.1246 (   356 PWs)   bands (ev):

   -96.9203 -54.3505 -54.3244 -54.3015  11.6833  11.7877  12.3353  13.2556
    13.9386  18.8343  20.0876  27.3439  27.4704  39.8926

          k = 0.3531 0.5608 0.1454 (   356 PWs)   bands (ev):

   -96.9206 -54.3534 -54.3201 -54.2994  11.5515  11.8788  12.4101  13.1811
    13.9244  18.3211  19.8804  28.1740  28.3454  39.3732

          k = 0.3531 0.5400 0.1662 (   358 PWs)   bands (ev):

   -96.9210 -54.3563 -54.3156 -54.2974  11.4131  11.9794  12.4961  13.0947
    13.9209  17.8260  19.7078  29.0331  29.2614  38.8942

          k = 0.3531 0.5192 0.1869 (   358 PWs)   bands (ev):

   -96.9214 -54.3589 -54.3109 -54.2955  11.2725  12.0858  12.5953  13.0039
    13.9246  17.3503  19.5663  29.9200  30.2120  38.4582

          k = 0.3531 0.4985 0.2077 (   358 PWs)   bands (ev):

   -96.9217 -54.3614 -54.3064 -54.2938  11.1344  12.1924  12.7112  12.9148
    13.9322  16.8948  19.4520  30.8323  31.1909  38.0678

          k = 0.3531 0.4777 0.2285 (   358 PWs)   bands (ev):

   -96.9221 -54.3637 -54.3021 -54.2924  11.0035  12.2929  12.8321  12.8480
    13.9414  16.4602  19.3610  31.7667  32.1905  37.7253

          k = 0.3531 0.4569 0.2492 (   352 PWs)   bands (ev):

   -96.9224 -54.3657 -54.2981 -54.2911  10.8844  12.3815  12.7589  13.0093
    13.9507  16.0471  19.2898  32.7186  33.2010  37.4336

          k = 0.3531 0.4362 0.2700 (   350 PWs)   bands (ev):

   -96.9227 -54.3673 -54.2947 -54.2900  10.7812  12.4548  12.6972  13.1956
    13.9591  15.6565  19.2356  33.6785  34.2074  37.1961

          k = 0.3531 0.4154 0.2908 (   352 PWs)   bands (ev):

   -96.9229 -54.3686 -54.2919 -54.2892  10.6971  12.5116  12.6483  13.4049
    13.9661  15.2902  19.1957  34.6257  35.1838  37.0192

          k = 0.3531 0.3946 0.3115 (   350 PWs)   bands (ev):

   -96.9230 -54.3696 -54.2899 -54.2886  10.6352  12.5521  12.6128  13.6306
    13.9712  14.9536  19.1686  35.5050  36.0803  36.9208

          k = 0.3531 0.3739 0.3323 (   344 PWs)   bands (ev):

   -96.9231 -54.3702 -54.2886 -54.2883  10.5972  12.5763  12.5914  13.8524
    13.9744  14.6657  19.1529  36.1496  36.7858  36.9608

          k = 0.3531 0.3531 0.3531 (   344 PWs)   bands (ev):

   -96.9232 -54.3704 -54.2882 -54.2882  10.5844  12.5843  12.5843  13.9754
    13.9754  14.5207  19.1477  36.3443  37.0772  37.0772

          k = 0.3363 0.3363 0.3363 (   344 PWs)   bands (ev):

   -96.9232 -54.3698 -54.2881 -54.2881  10.5717  12.5870  12.5870  13.9692
    13.9692  14.4132  19.3071  36.3600  37.0827  37.0827

          k = 0.3195 0.3195 0.3195 (   356 PWs)   bands (ev):

   -96.9235 -54.3682 -54.2878 -54.2878  10.5312  12.5949  12.5949  13.9506
    13.9506  14.1334  19.7445  36.4068  37.0993  37.0993

          k = 0.3026 0.3026 0.3026 (   353 PWs)   bands (ev):

   -96.9238 -54.3656 -54.2874 -54.2874  10.4566  12.6078  12.6078  13.7674
    13.9204  13.9204  20.3811  36.4836  37.1282  37.1282

          k = 0.2858 0.2858 0.2858 (   353 PWs)   bands (ev):

   -96.9242 -54.3620 -54.2869 -54.2869  10.3369  12.6251  12.6251  13.3898
    13.8796  13.8796  21.1511  36.5886  37.1708  37.1708

          k = 0.2690 0.2690 0.2690 (   353 PWs)   bands (ev):

   -96.9248 -54.3575 -54.2862 -54.2862  10.1611  12.6462  12.6462  13.0518
    13.8299  13.8299  22.0143  36.7193  37.2286  37.2286

          k = 0.2522 0.2522 0.2522 (   353 PWs)   bands (ev):

   -96.9255 -54.3522 -54.2854 -54.2854   9.9230  12.6701  12.6701  12.7825
    13.7731  13.7731  22.9470  36.8722  37.3031  37.3031

          k = 0.2354 0.2354 0.2354 (   347 PWs)   bands (ev):

   -96.9262 -54.3462 -54.2845 -54.2845   9.6272  12.5902  12.6955  12.6955
    13.7114  13.7114  23.9359  37.0430  37.3958  37.3958

          k = 0.2186 0.2186 0.2186 (   350 PWs)   bands (ev):

   -96.9270 -54.3397 -54.2835 -54.2835   9.2887  12.4674  12.7209  12.7209
    13.6476  13.6476  24.9701  37.2264  37.5076  37.5076

          k = 0.2018 0.2018 0.2018 (   350 PWs)   bands (ev):

   -96.9279 -54.3328 -54.2824 -54.2824   8.9273  12.3991  12.7442  12.7442
    13.5846  13.5846  26.0441  37.4160  37.6399  37.6399

          k = 0.1849 0.1849 0.1849 (   350 PWs)   bands (ev):

   -96.9288 -54.3256 -54.2813 -54.2813   8.5606  12.3703  12.7633  12.7633
    13.5259  13.5259  27.1532  37.6051  37.7931  37.7931

          k = 0.1681 0.1681 0.1681 (   350 PWs)   bands (ev):

   -96.9297 -54.3184 -54.2802 -54.2802   8.2021  12.3690  12.7755  12.7755
    13.4748  13.4748  28.2937  37.7863  37.9679  37.9679

          k = 0.1513 0.1513 0.1513 (   353 PWs)   bands (ev):

   -96.9306 -54.3112 -54.2792 -54.2792   7.8617  12.3858  12.7785  12.7785
    13.4345  13.4345  29.4615  37.9529  38.1643  38.1643

          k = 0.1345 0.1345 0.1345 (   344 PWs)   bands (ev):

   -96.9314 -54.3043 -54.2781 -54.2781   7.5463  12.4140  12.7714  12.7714
    13.4069  13.4069  30.6538  38.0999  38.3828  38.3828

          k = 0.1177 0.1177 0.1177 (   344 PWs)   bands (ev):

   -96.9323 -54.2978 -54.2771 -54.2771   7.2607  12.4486  12.7548  12.7548
    13.3916  13.3916  31.8651  38.2249  38.6220  38.6220

          k = 0.1009 0.1009 0.1009 (   338 PWs)   bands (ev):

   -96.9330 -54.2917 -54.2762 -54.2762   7.0082  12.4855  12.7314  12.7314
    13.3868  13.3868  33.0885  38.3302  38.8807  38.8807

          k = 0.0841 0.0841 0.0841 (   335 PWs)   bands (ev):

   -96.9337 -54.2864 -54.2754 -54.2754   6.7913  12.5217  12.7045  12.7045
    13.3892  13.3892  34.3114  38.4251  39.1554  39.1554

          k = 0.0673 0.0673 0.0673 (   335 PWs)   bands (ev):

   -96.9342 -54.2819 -54.2747 -54.2747   6.6118  12.5546  12.6778  12.6778
    13.3955  13.3955  35.5048  38.5332  39.4400  39.4400

          k = 0.0504 0.0504 0.0504 (   335 PWs)   bands (ev):

   -96.9347 -54.2782 -54.2741 -54.2741   6.4711  12.5823  12.6542  12.6542
    13.4031  13.4031  36.5948  38.7183  39.7229  39.7229

          k = 0.0336 0.0336 0.0336 (   335 PWs)   bands (ev):

   -96.9350 -54.2755 -54.2737 -54.2737   6.3699  12.6031  12.6359  12.6359
    13.4099  13.4099  37.3948  39.1364  39.9815  39.9815

          k = 0.0168 0.0168 0.0168 (   335 PWs)   bands (ev):

   -96.9352 -54.2739 -54.2735 -54.2735   6.3090  12.6161  12.6244  12.6244
    13.4145  13.4145  37.7592  39.8281  40.1754  40.1754

          k = 0.0000 0.0000 0.0000 (   339 PWs)   bands (ev):

   -96.9353 -54.2734 -54.2734 -54.2734   6.2887  12.6204  12.6204  12.6204
    13.4161  13.4161  37.8469  40.2500  40.2500  40.2500

          k = 0.0196 0.0196 0.0000 (   337 PWs)   bands (ev):

   -96.9352 -54.2738 -54.2735 -54.2734   6.3071  12.6161  12.6237  12.6248
    13.4129  13.4164  37.7704  39.9151  40.0275  40.2763

          k = 0.0392 0.0392 0.0000 (   337 PWs)   bands (ev):

   -96.9350 -54.2752 -54.2740 -54.2736   6.3624  12.6032  12.6333  12.6374
    13.4033  13.4174  37.4975  39.1631  39.6477  40.3551

          k = 0.0588 0.0588 0.0000 (   337 PWs)   bands (ev):

   -96.9347 -54.2775 -54.2747 -54.2738   6.4543  12.5821  12.6492  12.6574
    13.3879  13.4199  36.9744  38.2605  39.4212  40.4858

          k = 0.0785 0.0785 0.0000 (   337 PWs)   bands (ev):

   -96.9343 -54.2805 -54.2757 -54.2741   6.5822  12.5536  12.6713  12.6831
    13.3670  13.4251  36.2557  37.3078  39.3869  40.6677

          k = 0.0981 0.0981-0.0000 (   337 PWs)   bands (ev):

   -96.9338 -54.2843 -54.2769 -54.2745   6.7456  12.5187  12.6994  12.7121
    13.3416  13.4349  35.4380  36.3434  39.4820  40.8997

          k = 0.1177 0.1177-0.0000 (   339 PWs)   bands (ev):

   -96.9332 -54.2887 -54.2785 -54.2749   6.9434  12.4784  12.7331  12.7409
    13.3125  13.4522  34.5803  35.3849  39.6612  41.1805

          k = 0.1373 0.1373 0.0000 (   343 PWs)   bands (ev):

   -96.9325 -54.2936 -54.2803 -54.2755   7.1745  12.4342  12.7656  12.7721
    13.2809  13.4803  33.7111  34.4425  39.9023  41.5076

          k = 0.1569 0.1569 0.0000 (   345 PWs)   bands (ev):

   -96.9317 -54.2989 -54.2824 -54.2762   7.4374  12.3875  12.7820  12.8161
    13.2480  13.5228  32.8443  33.5218  40.1943  41.8800

          k = 0.1765 0.1765 0.0000 (   353 PWs)   bands (ev):

   -96.9309 -54.3045 -54.2847 -54.2769   7.7300  12.3397  12.7868  12.8647
    13.2149  13.5826  31.9863  32.6268  40.5312  41.5867

          k = 0.1962 0.1962 0.0000 (   349 PWs)   bands (ev):

   -96.9300 -54.3101 -54.2873 -54.2778   8.0499  12.2927  12.7784  12.9174
    13.1830  13.6614  31.1430  31.7615  40.9094  40.9917

          k = 0.2158 0.2158 0.0000 (   345 PWs)   bands (ev):

   -96.9291 -54.3157 -54.2901 -54.2788   8.3937  12.2480  12.7567  12.9737
    13.1535  13.7599  30.3156  30.9281  40.3946  41.1724

          k = 0.2354 0.2354 0.0000 (   341 PWs)   bands (ev):

   -96.9282 -54.3210 -54.2932 -54.2798   8.7572  12.2071  12.7226  13.0330
    13.1275  13.8785  29.5062  30.1288  39.8075  40.3077

          k = 0.2550 0.2550 0.0000 (   345 PWs)   bands (ev):

   -96.9273 -54.3261 -54.2965 -54.2810   9.1347  12.1716  12.6773  13.0948
    13.1061  14.0187  28.7144  29.3658  39.2387  39.4636

          k = 0.2746 0.2746-0.0000 (   345 PWs)   bands (ev):

   -96.9264 -54.3308 -54.2999 -54.2823   9.5190  12.1431  12.6221  13.0904
    13.1586  14.1837  27.9422  28.6412  38.6420  38.6946

          k = 0.2942 0.2942-0.0000 (   351 PWs)   bands (ev):

   -96.9256 -54.3348 -54.3035 -54.2836   9.9009  12.1229  12.5581  13.0812
    13.2237  14.3788  27.1892  27.9568  37.8430  38.1793

          k = 0.3139 0.3139 0.0000 (   351 PWs)   bands (ev):

   -96.9247 -54.3383 -54.3073 -54.2851  10.2690  12.1123  12.4865  13.0792
    13.2898  14.6119  26.4563  27.3144  37.0676  37.6957

          k = 0.3335 0.3335 0.0000 (   345 PWs)   bands (ev):

   -96.9239 -54.3411 -54.3112 -54.2866  10.6104  12.1125  12.4080  13.0849
    13.3560  14.8928  25.7436  26.7157  36.3168  37.2456

          k = 0.3531 0.3531 0.0000 (   343 PWs)   bands (ev):

   -96.9232 -54.3431 -54.3152 -54.2882  10.9123  12.1245  12.3237  13.0988
    13.4221  15.2318  25.0508  26.1614  35.5905  36.8296

          k = 0.3727 0.3727 0.0000 (   347 PWs)   bands (ev):

   -96.9225 -54.3443 -54.3192 -54.2899  11.1640  12.1492  12.2343  13.1208
    13.4873  15.6375  24.3776  25.6525  34.8895  36.4479

          k = 0.3923 0.3923 0.0000 (   351 PWs)   bands (ev):

   -96.9219 -54.3448 -54.3233 -54.2916  11.3597  12.1409  12.1873  13.1511
    13.5511  16.1142  23.7252  25.1892  34.2153  36.1000

          k = 0.4119 0.4119 0.0000 (   357 PWs)   bands (ev):

   -96.9214 -54.3445 -54.3274 -54.2933  11.4988  12.0449  12.2396  13.1894
    13.6133  16.6618  23.0934  24.7714  33.5685  35.7848

          k = 0.4315 0.4315 0.0000 (   357 PWs)   bands (ev):

   -96.9209 -54.3435 -54.3315 -54.2950  11.5845  11.9482  12.3066  13.2352
    13.6732  17.2760  22.4825  24.3982  32.9508  35.5011

          k = 0.4512 0.4512-0.0000 (   353 PWs)   bands (ev):

   -96.9205 -54.3418 -54.3355 -54.2968  11.6212  11.8545  12.3884  13.2879
    13.7304  17.9508  21.8927  24.0680  32.3635  35.2471

          k = 0.4708 0.4708-0.0000 (   353 PWs)   bands (ev):

   -96.9202 -54.3397 -54.3393 -54.2985  11.6100  11.7717  12.4853  13.3465
    13.7847  18.6792  21.3242  23.7787  31.8076  35.0208

          k = 0.4904 0.4904 0.0000 (   353 PWs)   bands (ev):

   -96.9199 -54.3431 -54.3370 -54.3002  11.5525  11.7076  12.5970  13.4100
    13.8357  19.4547  20.7775  23.5281  31.2850  34.8197

          k = 0.5100 0.5100 0.0000 (   351 PWs)   bands (ev):

   -96.9197 -54.3467 -54.3340 -54.3018  11.4660  11.6534  12.7234  13.4769
    13.8830  20.2534  20.2713  23.3138  30.7974  34.6416

          k = 0.5296 0.5296 0.0000 (   363 PWs)   bands (ev):

   -96.9195 -54.3500 -54.3308 -54.3034  11.3689  11.5985  12.8633  13.5458
    13.9265  19.7521  21.1213  23.1340  30.3467  34.4827

 ------ SPIN DOWN ----------


          k = 0.0000 0.0000 0.0000 (   339 PWs)   bands (ev):

   -96.9353 -54.2734 -54.2734 -54.2734   6.2887  12.6204  12.6204  12.6204
    13.4161  13.4161  37.8469  40.2500  40.2500  40.2500

          k = 0.0000 0.0307 0.0000 (   335 PWs)   bands (ev):

   -96.9352 -54.2738 -54.2736 -54.2736   6.3113  12.6138  12.6258  12.6258
    13.4100  13.4185  37.7609  39.9607  39.9607  40.1506

          k = 0.0000 0.0614 0.0000 (   335 PWs)   bands (ev):

   -96.9350 -54.2751 -54.2741 -54.2741   6.3790  12.5938  12.6416  12.6416
    13.3920  13.4258  37.5270  39.3179  39.3179  39.8759

          k = 0.0000 0.0921 0.0000 (   335 PWs)   bands (ev):

   -96.9346 -54.2773 -54.2749 -54.2749   6.4915  12.5610  12.6680  12.6680
    13.3625  13.4378  37.1975  38.5566  38.5566  39.4777

          k = 0.0000 0.1228 0.0000 (   335 PWs)   bands (ev):

   -96.9341 -54.2803 -54.2761 -54.2761   6.6480  12.5161  12.7047  12.7047
    13.3226  13.4543  36.8199  37.7617  37.7617  39.0062

          k = 0.0000 0.1535 0.0000 (   339 PWs)   bands (ev):

   -96.9335 -54.2840 -54.2776 -54.2776   6.8476  12.4601  12.7514  12.7514
    13.2735  13.4751  36.4262  36.9633  36.9633  38.4950

          k = 0.0000 0.1842 0.0000 (   339 PWs)   bands (ev):

   -96.9327 -54.2884 -54.2793 -54.2793   7.0888  12.3941  12.8079  12.8079
    13.2174  13.4996  36.0360  36.1751  36.1751  37.9622

          k = 0.0000 0.2149 0.0000 (   347 PWs)   bands (ev):

   -96.9319 -54.2933 -54.2813 -54.2813   7.3697  12.3196  12.8736  12.8736
    13.1568  13.5276  35.4038  35.4038  35.6602  37.4062

          k = 0.0000 0.2456 0.0000 (   347 PWs)   bands (ev):

   -96.9309 -54.2988 -54.2835 -54.2835   7.6877  12.2380  12.9479  12.9479
    13.0952  13.5586  34.6554  34.6554  35.3055  36.8027

          k = 0.0000 0.2763 0.0000 (   347 PWs)   bands (ev):

   -96.9299 -54.3046 -54.2858 -54.2858   8.0385  12.1511  13.0302  13.0302
    13.0374  13.5919  33.9331  33.9331  34.9752  36.0972

          k = 0.0000 0.3070 0.0000 (   347 PWs)   bands (ev):

   -96.9289 -54.3107 -54.2883 -54.2883   8.4166  12.0605  12.9899  13.1195
    13.1195  13.6269  33.2402  33.2402  34.6707  35.2221

          k = 0.0000 0.3377 0.0000 (   347 PWs)   bands (ev):

   -96.9278 -54.3170 -54.2908 -54.2908   8.8137  11.9680  12.9621  13.2147
    13.2147  13.6631  32.5796  32.5796  34.1673  34.3928

          k = 0.0000 0.3684 0.0000 (   347 PWs)   bands (ev):

   -96.9267 -54.3233 -54.2934 -54.2934   9.2174  11.8754  12.9669  13.3143
    13.3143  13.6998  31.9543  31.9543  32.9955  34.1413

          k = 0.0000 0.3991 0.0000 (   347 PWs)   bands (ev):

   -96.9256 -54.3295 -54.2959 -54.2959   9.6096  11.7844  13.0226  13.4169
    13.4169  13.7362  31.3673  31.3673  31.7727  33.9156

          k = 0.0000 0.4298 0.0000 (   347 PWs)   bands (ev):

   -96.9245 -54.3355 -54.2983 -54.2983   9.9667  11.6966  13.1529  13.5206
    13.5206  13.7717  30.5402  30.8217  30.8217  33.7151

          k = 0.0000 0.4605 0.0000 (   343 PWs)   bands (ev):

   -96.9235 -54.3412 -54.3007 -54.3007  10.2640  11.6136  13.3818  13.6233
    13.6233  13.8056  29.3220  30.3207  30.3207  33.5387

          k = 0.0000 0.4912 0.0000 (   351 PWs)   bands (ev):

   -96.9226 -54.3466 -54.3029 -54.3029  10.4849  11.5368  13.7227  13.7227
    13.7231  13.8373  28.1317  29.8673  29.8673  33.3851

          k = 0.0000 0.5220 0.0000 (   351 PWs)   bands (ev):

   -96.9217 -54.3514 -54.3048 -54.3048  10.6310  11.4675  13.8162  13.8162
    13.8662  14.1709  26.9830  29.4655  29.4655  33.2545

          k = 0.0000 0.5527 0.0000 (   343 PWs)   bands (ev):

   -96.9210 -54.3556 -54.3066 -54.3066  10.7180  11.4070  13.8917  13.9013
    13.9013  14.7019  25.8890  29.1183  29.1183  33.1469

          k = 0.0000 0.5834 0.0000 (   351 PWs)   bands (ev):

   -96.9203 -54.3592 -54.3081 -54.3081  10.7644  11.3560  13.9132  13.9754
    13.9754  15.2825  24.8665  28.8288  28.8288  33.0588

          k = 0.0000 0.6141 0.0000 (   343 PWs)   bands (ev):

   -96.9198 -54.3620 -54.3092 -54.3092  10.7868  11.3156  13.9304  14.0360
    14.0360  15.8707  23.9473  28.6001  28.6001  32.9920

          k = 0.0000 0.6448 0.0000 (   343 PWs)   bands (ev):

   -96.9194 -54.3640 -54.3101 -54.3101  10.7959  11.2862  13.9430  14.0810
    14.0810  16.4075  23.1794  28.4348  28.4348  32.9440

          k = 0.0000 0.6755 0.0000 (   342 PWs)   bands (ev):

   -96.9192 -54.3653 -54.3106 -54.3106  10.7990  11.2683  13.9506  14.1087
    14.1087  16.8052  22.6452  28.3348  28.3348  32.9153

          k = 0.0000 0.7062 0.0000 (   342 PWs)   bands (ev):

   -96.9191 -54.3657 -54.3108 -54.3108  10.7995  11.2623  13.9532  14.1181
    14.1181  16.9564  22.4488  28.3013  28.3013  32.9058

          k = 0.0321 0.7062-0.0000 (   342 PWs)   bands (ev):

   -96.9191 -54.3654 -54.3110 -54.3108  10.8111  11.2691  13.9446  14.0713
    14.1181  17.0255  22.4578  28.1282  28.1889  33.1090

          k = 0.0642 0.7062-0.0000 (   346 PWs)   bands (ev):

   -96.9192 -54.3646 -54.3119 -54.3108  10.8454  11.2895  13.9190  13.9431
    14.1181  17.2204  22.4848  27.6787  27.8820  33.6484

          k = 0.0963 0.7062 0.0000 (   348 PWs)   bands (ev):

   -96.9192 -54.3632 -54.3132 -54.3109  10.9010  11.3236  13.7599  13.8771
    14.1182  17.5147  22.5308  27.0738  27.4460  34.4041

          k = 0.1284 0.7062 0.0000 (   348 PWs)   bands (ev):

   -96.9192 -54.3613 -54.3151 -54.3109  10.9755  11.3717  13.5468  13.8202
    14.1183  17.8828  22.5970  26.3961  26.9441  35.2934

          k = 0.1605 0.7062 0.0000 (   358 PWs)   bands (ev):

   -96.9192 -54.3590 -54.3175 -54.3110  11.0651  11.4335  13.3217  13.7505
    14.1184  18.3068  22.6853  25.6888  26.4213  36.2715

          k = 0.1926 0.7062 0.0000 (   356 PWs)   bands (ev):

   -96.9192 -54.3562 -54.3203 -54.3110  11.1649  11.5101  13.0958  13.6714
    14.1186  18.7750  22.7981  24.9754  25.9069  37.3195

          k = 0.2247 0.7062 0.0000 (   356 PWs)   bands (ev):

   -96.9192 -54.3531 -54.3234 -54.3111  11.2681  11.6014  12.8758  13.5878
    14.1187  19.2799  22.9376  24.2674  25.4185  38.4242

          k = 0.2568 0.7062-0.0000 (   356 PWs)   bands (ev):

   -96.9192 -54.3497 -54.3268 -54.3112  11.3665  11.7075  12.6662  13.5069
    14.1188  19.8171  23.1071  23.5714  24.9672  39.5791

          k = 0.2889 0.7062 0.0000 (   352 PWs)   bands (ev):

   -96.9192 -54.3460 -54.3305 -54.3112  11.4492  11.8291  12.4692  13.4376
    14.1188  20.3830  22.8918  23.3073  24.5600  40.7818

          k = 0.3210 0.7062 0.0000 (   360 PWs)   bands (ev):

   -96.9192 -54.3422 -54.3343 -54.3113  11.5050  11.9659  12.2863  13.3901
    14.1189  20.9750  22.2309  23.5344  24.2063  42.0288

          k = 0.3531 0.7062 0.0000 (   360 PWs)   bands (ev):

   -96.9192 -54.3383 -54.3383 -54.3113  11.5249  12.1184  12.1184  13.3731
    14.1189  21.5915  21.5915  23.7060  23.9922  43.3199

          k = 0.3531 0.6854 0.0208 (   360 PWs)   bands (ev):

   -96.9192 -54.3388 -54.3378 -54.3108  11.5323  12.1045  12.1247  13.3732
    14.1097  21.4011  21.4832  23.9209  24.1580  42.9391

          k = 0.3531 0.6646 0.0415 (   356 PWs)   bands (ev):

   -96.9193 -54.3402 -54.3366 -54.3097  11.5546  12.0636  12.1437  13.3722
    14.0838  20.9666  21.2247  24.4293  24.5880  42.3089

          k = 0.3531 0.6439 0.0623 (   362 PWs)   bands (ev):

   -96.9195 -54.3423 -54.3345 -54.3079  11.5914  11.9977  12.1746  13.3657
    14.0459  20.4457  20.9150  25.0719  25.1800  41.6651

          k = 0.3531 0.6231 0.0831 (   362 PWs)   bands (ev):

   -96.9197 -54.3448 -54.3317 -54.3059  11.6429  11.9101  12.2173  13.3476
    14.0036  19.9035  20.6094  25.7855  25.8749  41.0425

          k = 0.3531 0.6023 0.1038 (   362 PWs)   bands (ev):

   -96.9200 -54.3476 -54.3283 -54.3037  11.7086  11.8041  12.2710  13.3119
    13.9657  19.3633  20.3309  26.5459  26.6435  40.4501

          k = 0.3531 0.5816 0.1246 (   356 PWs)   bands (ev):

   -96.9203 -54.3505 -54.3244 -54.3015  11.6833  11.7877  12.3353  13.2556
    13.9386  18.8343  20.0876  27.3439  27.4704  39.8926

          k = 0.3531 0.5608 0.1454 (   356 PWs)   bands (ev):

   -96.9206 -54.3534 -54.3201 -54.2994  11.5515  11.8788  12.4101  13.1811
    13.9244  18.3211  19.8804  28.1740  28.3454  39.3732

          k = 0.3531 0.5400 0.1662 (   358 PWs)   bands (ev):

   -96.9210 -54.3563 -54.3156 -54.2974  11.4131  11.9794  12.4961  13.0947
    13.9209  17.8260  19.7078  29.0331  29.2614  38.8942

          k = 0.3531 0.5192 0.1869 (   358 PWs)   bands (ev):

   -96.9214 -54.3589 -54.3109 -54.2955  11.2725  12.0858  12.5953  13.0039
    13.9246  17.3503  19.5663  29.9200  30.2120  38.4582

          k = 0.3531 0.4985 0.2077 (   358 PWs)   bands (ev):

   -96.9217 -54.3614 -54.3064 -54.2938  11.1344  12.1924  12.7112  12.9148
    13.9322  16.8948  19.4520  30.8323  31.1909  38.0678

          k = 0.3531 0.4777 0.2285 (   358 PWs)   bands (ev):

   -96.9221 -54.3637 -54.3021 -54.2924  11.0035  12.2929  12.8321  12.8480
    13.9414  16.4602  19.3610  31.7667  32.1905  37.7253

          k = 0.3531 0.4569 0.2492 (   352 PWs)   bands (ev):

   -96.9224 -54.3657 -54.2981 -54.2911  10.8844  12.3815  12.7589  13.0093
    13.9507  16.0471  19.2898  32.7186  33.2010  37.4336

          k = 0.3531 0.4362 0.2700 (   350 PWs)   bands (ev):

   -96.9227 -54.3673 -54.2947 -54.2900  10.7812  12.4548  12.6972  13.1956
    13.9591  15.6565  19.2356  33.6785  34.2074  37.1961

          k = 0.3531 0.4154 0.2908 (   352 PWs)   bands (ev):

   -96.9229 -54.3686 -54.2919 -54.2892  10.6971  12.5116  12.6483  13.4049
    13.9661  15.2902  19.1957  34.6257  35.1838  37.0192

          k = 0.3531 0.3946 0.3115 (   350 PWs)   bands (ev):

   -96.9230 -54.3696 -54.2899 -54.2886  10.6352  12.5521  12.6128  13.6306
    13.9712  14.9536  19.1686  35.5050  36.0803  36.9208

          k = 0.3531 0.3739 0.3323 (   344 PWs)   bands (ev):

   -96.9231 -54.3702 -54.2886 -54.2883  10.5972  12.5763  12.5914  13.8524
    13.9744  14.6657  19.1529  36.1496  36.7858  36.9608

          k = 0.3531 0.3531 0.3531 (   344 PWs)   bands (ev):

   -96.9232 -54.3704 -54.2882 -54.2882  10.5844  12.5843  12.5843  13.9754
    13.9754  14.5207  19.1477  36.3443  37.0772  37.0772

          k = 0.3363 0.3363 0.3363 (   344 PWs)   bands (ev):

   -96.9232 -54.3698 -54.2881 -54.2881  10.5717  12.5870  12.5870  13.9692
    13.9692  14.4132  19.3071  36.3600  37.0827  37.0827

          k = 0.3195 0.3195 0.3195 (   356 PWs)   bands (ev):

   -96.9235 -54.3682 -54.2878 -54.2878  10.5312  12.5949  12.5949  13.9506
    13.9506  14.1334  19.7445  36.4068  37.0993  37.0993

          k = 0.3026 0.3026 0.3026 (   353 PWs)   bands (ev):

   -96.9238 -54.3656 -54.2874 -54.2874  10.4566  12.6078  12.6078  13.7674
    13.9204  13.9204  20.3811  36.4836  37.1282  37.1282

          k = 0.2858 0.2858 0.2858 (   353 PWs)   bands (ev):

   -96.9242 -54.3620 -54.2869 -54.2869  10.3369  12.6251  12.6251  13.3898
    13.8796  13.8796  21.1511  36.5886  37.1708  37.1708

          k = 0.2690 0.2690 0.2690 (   353 PWs)   bands (ev):

   -96.9248 -54.3575 -54.2862 -54.2862  10.1611  12.6462  12.6462  13.0518
    13.8299  13.8299  22.0143  36.7193  37.2286  37.2286

          k = 0.2522 0.2522 0.2522 (   353 PWs)   bands (ev):

   -96.9255 -54.3522 -54.2854 -54.2854   9.9230  12.6701  12.6701  12.7825
    13.7731  13.7731  22.9470  36.8722  37.3031  37.3031

          k = 0.2354 0.2354 0.2354 (   347 PWs)   bands (ev):

   -96.9262 -54.3462 -54.2845 -54.2845   9.6272  12.5902  12.6955  12.6955
    13.7114  13.7114  23.9359  37.0430  37.3958  37.3958

          k = 0.2186 0.2186 0.2186 (   350 PWs)   bands (ev):

   -96.9270 -54.3397 -54.2835 -54.2835   9.2887  12.4674  12.7209  12.7209
    13.6476  13.6476  24.9701  37.2264  37.5076  37.5076

          k = 0.2018 0.2018 0.2018 (   350 PWs)   bands (ev):

   -96.9279 -54.3328 -54.2824 -54.2824   8.9273  12.3991  12.7442  12.7442
    13.5846  13.5846  26.0441  37.4160  37.6399  37.6399

          k = 0.1849 0.1849 0.1849 (   350 PWs)   bands (ev):

   -96.9288 -54.3256 -54.2813 -54.2813   8.5606  12.3703  12.7633  12.7633
    13.5259  13.5259  27.1532  37.6051  37.7931  37.7931

          k = 0.1681 0.1681 0.1681 (   350 PWs)   bands (ev):

   -96.9297 -54.3184 -54.2802 -54.2802   8.2021  12.3690  12.7755  12.7755
    13.4748  13.4748  28.2937  37.7863  37.9679  37.9679

          k = 0.1513 0.1513 0.1513 (   353 PWs)   bands (ev):

   -96.9306 -54.3112 -54.2792 -54.2792   7.8617  12.3858  12.7785  12.7785
    13.4345  13.4345  29.4615  37.9529  38.1643  38.1643

          k = 0.1345 0.1345 0.1345 (   344 PWs)   bands (ev):

   -96.9314 -54.3043 -54.2781 -54.2781   7.5463  12.4140  12.7714  12.7714
    13.4069  13.4069  30.6538  38.0999  38.3828  38.3828

          k = 0.1177 0.1177 0.1177 (   344 PWs)   bands (ev):

   -96.9323 -54.2978 -54.2771 -54.2771   7.2607  12.4486  12.7548  12.7548
    13.3916  13.3916  31.8651  38.2249  38.6220  38.6220

          k = 0.1009 0.1009 0.1009 (   338 PWs)   bands (ev):

   -96.9330 -54.2917 -54.2762 -54.2762   7.0082  12.4855  12.7314  12.7314
    13.3868  13.3868  33.0885  38.3302  38.8807  38.8807

          k = 0.0841 0.0841 0.0841 (   335 PWs)   bands (ev):

   -96.9337 -54.2864 -54.2754 -54.2754   6.7913  12.5217  12.7045  12.7045
    13.3892  13.3892  34.3114  38.4251  39.1554  39.1554

          k = 0.0673 0.0673 0.0673 (   335 PWs)   bands (ev):

   -96.9342 -54.2819 -54.2747 -54.2747   6.6118  12.5546  12.6778  12.6778
    13.3955  13.3955  35.5048  38.5332  39.4400  39.4400

          k = 0.0504 0.0504 0.0504 (   335 PWs)   bands (ev):

   -96.9347 -54.2782 -54.2741 -54.2741   6.4711  12.5823  12.6542  12.6542
    13.4031  13.4031  36.5948  38.7183  39.7229  39.7229

          k = 0.0336 0.0336 0.0336 (   335 PWs)   bands (ev):

   -96.9350 -54.2755 -54.2737 -54.2737   6.3699  12.6031  12.6359  12.6359
    13.4099  13.4099  37.3948  39.1364  39.9815  39.9815

          k = 0.0168 0.0168 0.0168 (   335 PWs)   bands (ev):

   -96.9352 -54.2739 -54.2735 -54.2735   6.3090  12.6161  12.6244  12.6244
    13.4145  13.4145  37.7592  39.8281  40.1754  40.1754

          k = 0.0000 0.0000 0.0000 (   339 PWs)   bands (ev):

   -96.9353 -54.2734 -54.2734 -54.2734   6.2887  12.6204  12.6204  12.6204
    13.4161  13.4161  37.8469  40.2500  40.2500  40.2500

          k = 0.0196 0.0196 0.0000 (   337 PWs)   bands (ev):

   -96.9352 -54.2738 -54.2735 -54.2734   6.3071  12.6161  12.6237  12.6248
    13.4129  13.4164  37.7704  39.9151  40.0275  40.2763

          k = 0.0392 0.0392 0.0000 (   337 PWs)   bands (ev):

   -96.9350 -54.2752 -54.2740 -54.2736   6.3624  12.6032  12.6333  12.6374
    13.4033  13.4174  37.4975  39.1631  39.6477  40.3551

          k = 0.0588 0.0588 0.0000 (   337 PWs)   bands (ev):

   -96.9347 -54.2775 -54.2747 -54.2738   6.4543  12.5821  12.6492  12.6574
    13.3879  13.4199  36.9744  38.2605  39.4212  40.4858

          k = 0.0785 0.0785 0.0000 (   337 PWs)   bands (ev):

   -96.9343 -54.2805 -54.2757 -54.2741   6.5822  12.5536  12.6713  12.6831
    13.3670  13.4251  36.2557  37.3078  39.3869  40.6677

          k = 0.0981 0.0981-0.0000 (   337 PWs)   bands (ev):

   -96.9338 -54.2843 -54.2769 -54.2745   6.7456  12.5187  12.6994  12.7121
    13.3416  13.4349  35.4380  36.3434  39.4820  40.8997

          k = 0.1177 0.1177-0.0000 (   339 PWs)   bands (ev):

   -96.9332 -54.2887 -54.2785 -54.2749   6.9434  12.4784  12.7331  12.7409
    13.3125  13.4522  34.5803  35.3849  39.6612  41.1805

          k = 0.1373 0.1373 0.0000 (   343 PWs)   bands (ev):

   -96.9325 -54.2936 -54.2803 -54.2755   7.1745  12.4342  12.7656  12.7721
    13.2809  13.4803  33.7111  34.4425  39.9023  41.5076

          k = 0.1569 0.1569 0.0000 (   345 PWs)   bands (ev):

   -96.9317 -54.2989 -54.2824 -54.2762   7.4374  12.3875  12.7820  12.8161
    13.2480  13.5228  32.8443  33.5218  40.1943  41.8800

          k = 0.1765 0.1765 0.0000 (   353 PWs)   bands (ev):

   -96.9309 -54.3045 -54.2847 -54.2769   7.7300  12.3397  12.7868  12.8647
    13.2149  13.5826  31.9863  32.6268  40.5312  41.5867

          k = 0.1962 0.1962 0.0000 (   349 PWs)   bands (ev):

   -96.9300 -54.3101 -54.2873 -54.2778   8.0499  12.2927  12.7784  12.9174
    13.1830  13.6614  31.1430  31.7615  40.9094  40.9917

          k = 0.2158 0.2158 0.0000 (   345 PWs)   bands (ev):

   -96.9291 -54.3157 -54.2901 -54.2788   8.3937  12.2480  12.7567  12.9737
    13.1535  13.7599  30.3156  30.9281  40.3946  41.1724

          k = 0.2354 0.2354 0.0000 (   341 PWs)   bands (ev):

   -96.9282 -54.3210 -54.2932 -54.2798   8.7572  12.2071  12.7226  13.0330
    13.1275  13.8785  29.5062  30.1288  39.8075  40.3077

          k = 0.2550 0.2550 0.0000 (   345 PWs)   bands (ev):

   -96.9273 -54.3261 -54.2965 -54.2810   9.1347  12.1716  12.6773  13.0948
    13.1061  14.0187  28.7144  29.3658  39.2387  39.4636

          k = 0.2746 0.2746-0.0000 (   345 PWs)   bands (ev):

   -96.9264 -54.3308 -54.2999 -54.2823   9.5190  12.1431  12.6221  13.0904
    13.1586  14.1837  27.9422  28.6412  38.6420  38.6946

          k = 0.2942 0.2942-0.0000 (   351 PWs)   bands (ev):

   -96.9256 -54.3348 -54.3035 -54.2836   9.9009  12.1229  12.5581  13.0812
    13.2237  14.3788  27.1892  27.9568  37.8430  38.1793

          k = 0.3139 0.3139 0.0000 (   351 PWs)   bands (ev):

   -96.9247 -54.3383 -54.3073 -54.2851  10.2690  12.1123  12.4865  13.0792
    13.2898  14.6119  26.4563  27.3144  37.0676  37.6957

          k = 0.3335 0.3335 0.0000 (   345 PWs)   bands (ev):

   -96.9239 -54.3411 -54.3112 -54.2866  10.6104  12.1125  12.4080  13.0849
    13.3560  14.8928  25.7436  26.7157  36.3168  37.2456

          k = 0.3531 0.3531 0.0000 (   343 PWs)   bands (ev):

   -96.9232 -54.3431 -54.3152 -54.2882  10.9123  12.1245  12.3237  13.0988
    13.4221  15.2318  25.0508  26.1614  35.5905  36.8296

          k = 0.3727 0.3727 0.0000 (   347 PWs)   bands (ev):

   -96.9225 -54.3443 -54.3192 -54.2899  11.1640  12.1492  12.2343  13.1208
    13.4873  15.6375  24.3776  25.6525  34.8895  36.4479

          k = 0.3923 0.3923 0.0000 (   351 PWs)   bands (ev):

   -96.9219 -54.3448 -54.3233 -54.2916  11.3597  12.1409  12.1873  13.1511
    13.5511  16.1142  23.7252  25.1892  34.2153  36.1000

          k = 0.4119 0.4119 0.0000 (   357 PWs)   bands (ev):

   -96.9214 -54.3445 -54.3274 -54.2933  11.4988  12.0449  12.2396  13.1894
    13.6133  16.6618  23.0934  24.7714  33.5685  35.7848

          k = 0.4315 0.4315 0.0000 (   357 PWs)   bands (ev):

   -96.9209 -54.3435 -54.3315 -54.2950  11.5845  11.9482  12.3066  13.2352
    13.6732  17.2760  22.4825  24.3982  32.9508  35.5011

          k = 0.4512 0.4512-0.0000 (   353 PWs)   bands (ev):

   -96.9205 -54.3418 -54.3355 -54.2968  11.6212  11.8545  12.3884  13.2879
    13.7304  17.9508  21.8927  24.0680  32.3635  35.2471

          k = 0.4708 0.4708-0.0000 (   353 PWs)   bands (ev):

   -96.9202 -54.3397 -54.3393 -54.2985  11.6100  11.7717  12.4853  13.3465
    13.7847  18.6792  21.3242  23.7787  31.8076  35.0208

          k = 0.4904 0.4904 0.0000 (   353 PWs)   bands (ev):

   -96.9199 -54.3431 -54.3370 -54.3002  11.5525  11.7076  12.5970  13.4100
    13.8357  19.4547  20.7775  23.5281  31.2850  34.8197

          k = 0.5100 0.5100 0.0000 (   351 PWs)   bands (ev):

   -96.9197 -54.3467 -54.3340 -54.3018  11.4660  11.6534  12.7234  13.4769
    13.8830  20.2534  20.2713  23.3138  30.7974  34.6416

          k = 0.5296 0.5296 0.0000 (   363 PWs)   bands (ev):

   -96.9195 -54.3500 -54.3308 -54.3034  11.3689  11.5985  12.8633  13.5458
    13.9265  19.7521  21.1213  23.1340  30.3467  34.4827

     Writing all to output data dir ./output/opt.save/
 
     init_run     :      0.03s CPU      0.04s WALL (       1 calls)
     electrons    :      1.26s CPU      1.38s WALL (       1 calls)

     Called by init_run:
     wfcinit      :      0.00s CPU      0.00s WALL (       1 calls)
     wfcinit:atom :      0.00s CPU      0.00s WALL (     100 calls)
     wfcinit:wfcr :      0.06s CPU      0.06s WALL (     100 calls)
     potinit      :      0.00s CPU      0.01s WALL (       1 calls)
     hinit0       :      0.03s CPU      0.03s WALL (       1 calls)

     Called by electrons:
     c_bands      :      1.26s CPU      1.38s WALL (       1 calls)
     v_of_rho     :      0.00s CPU      0.01s WALL (       1 calls)
     v_h          :      0.00s CPU      0.00s WALL (       1 calls)
     v_xc         :      0.00s CPU      0.01s WALL (       1 calls)
     newd         :      0.00s CPU      0.00s WALL (       1 calls)

     Called by c_bands:
     init_us_2    :      0.00s CPU      0.00s WALL (     100 calls)
     init_us_2:cp :      0.00s CPU      0.00s WALL (     100 calls)
     cegterg      :      1.18s CPU      1.26s WALL (     139 calls)

     Called by sum_band:

     Called by *egterg:
     cdiaghg      :      0.44s CPU      0.47s WALL (    2205 calls)
     cegterg:over :      0.05s CPU      0.05s WALL (    2105 calls)
     cegterg:upda :      0.01s CPU      0.01s WALL (    2105 calls)
     cegterg:last :      0.02s CPU      0.02s WALL (    1457 calls)
     h_psi        :      0.66s CPU      0.71s WALL (    2344 calls)
     s_psi        :      0.01s CPU      0.01s WALL (    2344 calls)
     g_psi        :      0.00s CPU      0.00s WALL (    2105 calls)

     Called by h_psi:
     h_psi:calbec :      0.03s CPU      0.03s WALL (    2344 calls)
     vloc_psi     :      0.61s CPU      0.66s WALL (    2344 calls)
     add_vuspsi   :      0.01s CPU      0.01s WALL (    2344 calls)

     General routines
     calbec       :      0.02s CPU      0.03s WALL (    2344 calls)
     fft          :      0.01s CPU      0.01s WALL (      23 calls)
     ffts         :      0.00s CPU      0.00s WALL (       2 calls)
     fftw         :      0.52s CPU      0.56s WALL (   43986 calls)
     interpolate  :      0.00s CPU      0.00s WALL (       2 calls)
     davcio       :      0.00s CPU      0.00s WALL (     200 calls)
 
     Parallel routines
 
     PWSCF        :      1.48s CPU      1.80s WALL

 
   This run was terminated on:  10: 3:58   4Jun2024            

=------------------------------------------------------------------------------=
   JOB DONE.
=------------------------------------------------------------------------------=
