
     Program PWSCF v.7.2 starts on  4Jun2024 at 23:26:33 

     This program is part of the open-source Quantum ESPRESSO suite
     for quantum simulation of materials; please cite
         "P. Giannozzi et al., J. Phys.:Condens. Matter 21 395502 (2009);
         "P. Giannozzi et al., J. Phys.:Condens. Matter 29 465901 (2017);
         "P. Giannozzi et al., J. Chem. Phys. 152 154105 (2020);
          URL http://www.quantum-espresso.org", 
     in publications or presentations arising from this work. More details at
     http://www.quantum-espresso.org/quote

     Parallel version (MPI), running on    32 processors

     MPI processes distributed on     1 nodes
     180958 MiB available memory on the printing compute node when the environment starts
 
     Reading input from scf_efield_p.in
Warning: card &CELL ignored
Warning: card / ignored

     Current dimensions of program PWSCF are:
     Max number of different atomic species (ntypx) = 10
     Max number of k-points (npk) =  40000
     Max angular momentum in pseudopotentials (lmaxx) =  4
 
     R & G space division:  proc/nbgrp/npool/nimage =      32
     Subspace diagonalization in iterative solution of the eigenvalue problem:
     a serial algorithm will be used

 
     Parallelization info
     --------------------
     sticks:   dense  smooth     PW     G-vecs:    dense   smooth      PW
     Min          64      32      8                13804     4878     692
     Max          65      33      9                13839     4905     719
     Sum        2053    1027    283               442007   156319   22723
 
     Using Slab Decomposition
 


     bravais-lattice index     =            0
     lattice parameter (alat)  =       9.6476  a.u.
     unit-cell volume          =    4569.7547 (a.u.)^3
     number of atoms/cell      =           14
     number of atomic types    =            3
     number of electrons       =       238.00
     number of Kohn-Sham states=          143
     kinetic-energy cutoff     =      40.0000  Ry
     charge density cutoff     =     320.0000  Ry
     scf convergence threshold =      1.0E-06
     mixing beta               =       0.1000
     number of iterations used =            8  plain     mixing
     Exchange-correlation= SLA  PW   PBE  PBE
                           (   1   4   3   4   0   0   0)

     celldm(1)=   9.647639  celldm(2)=   0.000000  celldm(3)=   0.000000
     celldm(4)=   0.000000  celldm(5)=   0.000000  celldm(6)=   0.000000

     crystal axes: (cart. coord. in units of alat)
               a(1) = (   1.000000   0.000000   0.000000 )  
               a(2) = (   0.500000   0.866025   0.000000 )  
               a(3) = (   0.000000   0.000000   5.876234 )  

     reciprocal axes: (cart. coord. in units 2 pi/alat)
               b(1) = (  1.000000 -0.577350  0.000000 )  
               b(2) = (  0.000000  1.154701  0.000000 )  
               b(3) = (  0.000000  0.000000  0.170177 )  


     PseudoPot. # 1 for Cu read from file:
     ../../pseudo/cu_pbe_v1.2.uspp.F.UPF
     MD5 check sum: 6e991ff952a84172a2a52a1c1e996048
     Pseudo is Ultrasoft + core correction, Zval = 19.0
     Generated by new atomic code, or converted to UPF format
     Using radial grid of  867 points,  6 beta functions with: 
                l(1) =   0
                l(2) =   0
                l(3) =   1
                l(4) =   1
                l(5) =   2
                l(6) =   2
     Q(r) pseudized with  8 coefficients,  rinner =    1.150   1.150   1.150
                                                       1.150   1.150

     PseudoPot. # 2 for O  read from file:
     ../../pseudo/o_pbe_v1.2.uspp.F.UPF
     MD5 check sum: 734c27235a0248c51dbae37a1fbe46ec
     Pseudo is Ultrasoft + core correction, Zval =  6.0
     Generated by new atomic code, or converted to UPF format
     Using radial grid of  737 points,  5 beta functions with: 
                l(1) =   0
                l(2) =   0
                l(3) =   1
                l(4) =   1
                l(5) =   2
     Q(r) pseudized with  8 coefficients,  rinner =    0.900   0.900   0.900
                                                       0.900   0.900

     PseudoPot. # 3 for C  read from file:
     ../../pseudo/c_pbe_v1.2.uspp.F.UPF
     MD5 check sum: d1aef80898a10debaa0f26306b886e00
     Pseudo is Ultrasoft + core correction, Zval =  4.0
     Generated by new atomic code, or converted to UPF format
     Using radial grid of  721 points,  4 beta functions with: 
                l(1) =   0
                l(2) =   0
                l(3) =   1
                l(4) =   1
     Q(r) pseudized with  8 coefficients,  rinner =    1.100   1.100   1.100


     atomic species   valence    mass     pseudopotential
        Cu            19.00    63.54600     Cu( 1.00)
        O              6.00    15.99900     O ( 1.00)
        C              4.00    12.01100     C ( 1.00)

     No symmetry found



   Cartesian axes

     site n.     atom                  positions (alat units)
         1           Cu  tau(   1) = (   0.1250000   0.0721688  -0.3917489  )
         2           Cu  tau(   2) = (   0.6303651   0.3620439   0.0093767  )
         3           Cu  tau(   3) = (   0.3908697   0.2225165   0.4072039  )
         4           Cu  tau(   4) = (   0.3750000   0.5051815  -0.3917489  )
         5           Cu  tau(   5) = (   0.8810586   0.7929929   0.0121369  )
         6           Cu  tau(   6) = (   0.6406493   0.6600251   0.4293002  )
         7           Cu  tau(   7) = (   0.6250000   0.0721688  -0.3917489  )
         8           Cu  tau(   8) = (   1.1289367   0.3637558   0.0124115  )
         9           Cu  tau(   9) = (   0.8944855   0.2208325   0.4305396  )
        10           Cu  tau(  10) = (   0.8750000   0.5051815  -0.3917489  )
        11           Cu  tau(  11) = (   1.3806944   0.7954917   0.0246836  )
        12           Cu  tau(  12) = (   1.1455917   0.6584810   0.4319321  )
        13           O   tau(  13) = (   0.8819856   0.5082280   0.9272744  )
        14           C   tau(  14) = (   0.8813532   0.5068991   0.6960150  )

     number of k points=     2  Methfessel-Paxton smearing, width (Ry)=  0.0100
                       cart. coord. in units 2pi/alat
        k(    1) = (   0.2500000   0.1443376   0.0000000), wk =   1.0000000
        k(    2) = (   0.2500000  -0.4330127   0.0000000), wk =   1.0000000

     Dense  grid:   442007 G-vectors     FFT dimensions: (  60,  60, 324)

     Smooth grid:   156319 G-vectors     FFT dimensions: (  40,  40, 240)

     Estimated max dynamical RAM per process >      66.24 MB

     Estimated total dynamical RAM >       2.07 GB

     Initial potential from superposition of free atoms

     starting charge     225.9999, renormalised to     238.0000

     negative rho (up, down):  4.013E-03 0.000E+00
 
     Adding external electric field

     Computed dipole along edir(3) : 
        Dipole               -4.1946 Ry au,        -10.6616 Debye
        Dipole field         -0.0115 Ry au, 
 
        E field amplitude [Ha a.u.]:  1.0000E-02
        Potential amp.        2.4173 Ry
        Total length         56.1249 bohr
 
     Starting wfcs are  164 randomized atomic wfcs

     total cpu time spent up to now is        0.8 secs

     Self-consistent Calculation

     iteration #  1     ecut=    40.00 Ry     beta= 0.10
     Davidson diagonalization with overlap
     ethr =  1.00E-02,  avg # of iterations = 13.0

     negative rho (up, down):  1.273E-03 0.000E+00
 
     Adding external electric field

     Computed dipole along edir(3) : 
        Dipole               94.9564 Ry au,        241.3551 Debye
        Dipole field          0.2611 Ry au, 
 
        E field amplitude [Ha a.u.]:  1.0000E-02
        Potential amp.      -28.1882 Ry
        Total length         56.1249 bohr
 

     total cpu time spent up to now is        2.6 secs

     total energy              =   -3839.80517848 Ry
     estimated scf accuracy    <    5807.53651924 Ry

     iteration #  2     ecut=    40.00 Ry     beta= 0.10
     Davidson diagonalization with overlap
     ethr =  1.00E-02,  avg # of iterations = 22.0
 
     Adding external electric field

     Computed dipole along edir(3) : 
        Dipole               39.7662 Ry au,        101.0756 Debye
        Dipole field          0.1094 Ry au, 
 
        E field amplitude [Ha a.u.]:  1.0000E-02
        Potential amp.      -11.1524 Ry
        Total length         56.1249 bohr
 

     total cpu time spent up to now is        6.2 secs

     total energy              =   -4328.13446938 Ry
     estimated scf accuracy    <   25491.49149707 Ry

     iteration #  3     ecut=    40.00 Ry     beta= 0.10
     Davidson diagonalization with overlap
     ethr =  1.00E-02,  avg # of iterations = 12.5
 
     Adding external electric field

     Computed dipole along edir(3) : 
        Dipole               38.4236 Ry au,         97.6630 Debye
        Dipole field          0.1057 Ry au, 
 
        E field amplitude [Ha a.u.]:  1.0000E-02
        Potential amp.      -10.7379 Ry
        Total length         56.1249 bohr
 

     total cpu time spent up to now is        8.6 secs

     WARNING: integrated charge=   237.99983580, expected=   238.00000000

     total energy              =   -4875.75583685 Ry
     estimated scf accuracy    <    1863.96532719 Ry

     iteration #  4     ecut=    40.00 Ry     beta= 0.10
     Davidson diagonalization with overlap
     ethr =  1.00E-02,  avg # of iterations =  9.0
 
     Adding external electric field

     Computed dipole along edir(3) : 
        Dipole               35.9448 Ry au,         91.3626 Debye
        Dipole field          0.0988 Ry au, 
 
        E field amplitude [Ha a.u.]:  1.0000E-02
        Potential amp.       -9.9728 Ry
        Total length         56.1249 bohr
 

     total cpu time spent up to now is        9.9 secs

     WARNING: integrated charge=   237.99987333, expected=   238.00000000

     total energy              =   -4912.61070892 Ry
     estimated scf accuracy    <      92.53075610 Ry

     iteration #  5     ecut=    40.00 Ry     beta= 0.10
     Davidson diagonalization with overlap
     ethr =  1.00E-02,  avg # of iterations =  1.5
 
     Adding external electric field

     Computed dipole along edir(3) : 
        Dipole               33.7717 Ry au,         85.8392 Debye
        Dipole field          0.0929 Ry au, 
 
        E field amplitude [Ha a.u.]:  1.0000E-02
        Potential amp.       -9.3020 Ry
        Total length         56.1249 bohr
 

     total cpu time spent up to now is       10.5 secs

     WARNING: integrated charge=   237.99990335, expected=   238.00000000

     total energy              =   -4908.81297524 Ry
     estimated scf accuracy    <     144.78881492 Ry

     iteration #  6     ecut=    40.00 Ry     beta= 0.10
     Davidson diagonalization with overlap
     ethr =  1.00E-02,  avg # of iterations =  1.0
 
     Adding external electric field

     Computed dipole along edir(3) : 
        Dipole               31.6714 Ry au,         80.5008 Debye
        Dipole field          0.0871 Ry au, 
 
        E field amplitude [Ha a.u.]:  1.0000E-02
        Potential amp.       -8.6537 Ry
        Total length         56.1249 bohr
 

     total cpu time spent up to now is       11.1 secs

     WARNING: integrated charge=   237.99991880, expected=   238.00000000

     total energy              =   -4907.31917478 Ry
     estimated scf accuracy    <      35.16758508 Ry

     iteration #  7     ecut=    40.00 Ry     beta= 0.10
     Davidson diagonalization with overlap
     ethr =  1.00E-02,  avg # of iterations =  1.0
 
     Adding external electric field

     Computed dipole along edir(3) : 
        Dipole               24.9293 Ry au,         63.3638 Debye
        Dipole field          0.0686 Ry au, 
 
        E field amplitude [Ha a.u.]:  1.0000E-02
        Potential amp.       -6.5726 Ry
        Total length         56.1249 bohr
 

     total cpu time spent up to now is       11.7 secs

     total energy              =   -4898.20100300 Ry
     estimated scf accuracy    <      43.23201610 Ry

     iteration #  8     ecut=    40.00 Ry     beta= 0.10
     Davidson diagonalization with overlap
     ethr =  1.00E-02,  avg # of iterations =  1.0
 
     Adding external electric field

     Computed dipole along edir(3) : 
        Dipole               24.0806 Ry au,         61.2068 Debye
        Dipole field          0.0662 Ry au, 
 
        E field amplitude [Ha a.u.]:  1.0000E-02
        Potential amp.       -6.3106 Ry
        Total length         56.1249 bohr
 

     total cpu time spent up to now is       12.3 secs

     total energy              =   -4897.51224210 Ry
     estimated scf accuracy    <      84.32590407 Ry

     iteration #  9     ecut=    40.00 Ry     beta= 0.10
     Davidson diagonalization with overlap
     ethr =  1.00E-02,  avg # of iterations =  1.0
 
     Adding external electric field

     Computed dipole along edir(3) : 
        Dipole               22.9212 Ry au,         58.2600 Debye
        Dipole field          0.0630 Ry au, 
 
        E field amplitude [Ha a.u.]:  1.0000E-02
        Potential amp.       -5.9527 Ry
        Total length         56.1249 bohr
 

     total cpu time spent up to now is       12.9 secs

     total energy              =   -4895.61782260 Ry
     estimated scf accuracy    <      46.94512274 Ry

     iteration # 10     ecut=    40.00 Ry     beta= 0.10
     Davidson diagonalization with overlap
     ethr =  1.00E-02,  avg # of iterations =  1.0

     negative rho (up, down):  4.638E-02 0.000E+00
 
     Adding external electric field

     Computed dipole along edir(3) : 
        Dipole               12.5368 Ry au,         31.8655 Debye
        Dipole field          0.0345 Ry au, 
 
        E field amplitude [Ha a.u.]:  1.0000E-02
        Potential amp.       -2.7473 Ry
        Total length         56.1249 bohr
 

     total cpu time spent up to now is       13.6 secs

     WARNING: integrated charge=   238.00007161, expected=   238.00000000

     total energy              =   -4889.03325408 Ry
     estimated scf accuracy    <      15.23400395 Ry

     iteration # 11     ecut=    40.00 Ry     beta= 0.10
     Davidson diagonalization with overlap
     ethr =  6.40E-03,  avg # of iterations =  6.0

     negative rho (up, down):  3.574E-02 0.000E+00
 
     Adding external electric field

     Computed dipole along edir(3) : 
        Dipole               12.2701 Ry au,         31.1875 Debye
        Dipole field          0.0337 Ry au, 
 
        E field amplitude [Ha a.u.]:  1.0000E-02
        Potential amp.       -2.6650 Ry
        Total length         56.1249 bohr
 

     total cpu time spent up to now is       14.6 secs

     total energy              =   -4892.94058180 Ry
     estimated scf accuracy    <      23.69903028 Ry

     iteration # 12     ecut=    40.00 Ry     beta= 0.10
     Davidson diagonalization with overlap
     ethr =  6.40E-03,  avg # of iterations =  1.0
     Minimization algorithm failed to find Fermi energy: reverting to bisection
     Possible cause: smearing is larger than the electronic band-gap.

     negative rho (up, down):  1.245E-01 0.000E+00
 
     Adding external electric field

     Computed dipole along edir(3) : 
        Dipole               12.5308 Ry au,         31.8501 Debye
        Dipole field          0.0345 Ry au, 
 
        E field amplitude [Ha a.u.]:  1.0000E-02
        Potential amp.       -2.7454 Ry
        Total length         56.1249 bohr
 

     total cpu time spent up to now is       15.2 secs

     WARNING: integrated charge=   238.00698328, expected=   238.00000000

     total energy              =   -4892.83570991 Ry
     estimated scf accuracy    <      24.33964961 Ry

     iteration # 13     ecut=    40.00 Ry     beta= 0.10
     Davidson diagonalization with overlap
     ethr =  6.40E-03,  avg # of iterations =  1.0

     negative rho (up, down):  2.322E-01 0.000E+00
 
     Adding external electric field

     Computed dipole along edir(3) : 
        Dipole               14.7797 Ry au,         37.5662 Debye
        Dipole field          0.0406 Ry au, 
 
        E field amplitude [Ha a.u.]:  1.0000E-02
        Potential amp.       -3.4396 Ry
        Total length         56.1249 bohr
 

     total cpu time spent up to now is       15.8 secs

     WARNING: integrated charge=   238.02204879, expected=   238.00000000

     total energy              =   -4892.39393907 Ry
     estimated scf accuracy    <      24.61209005 Ry

     iteration # 14     ecut=    40.00 Ry     beta= 0.10
     Davidson diagonalization with overlap
     ethr =  6.40E-03,  avg # of iterations =  3.0

     negative rho (up, down):  4.158E-01 0.000E+00
 
     Adding external electric field

     Computed dipole along edir(3) : 
        Dipole               11.2193 Ry au,         28.5167 Debye
        Dipole field          0.0309 Ry au, 
 
        E field amplitude [Ha a.u.]:  1.0000E-02
        Potential amp.       -2.3406 Ry
        Total length         56.1249 bohr
 

     total cpu time spent up to now is       16.5 secs

     WARNING: integrated charge=   238.01413724, expected=   238.00000000

     total energy              =   -4894.18724856 Ry
     estimated scf accuracy    <      17.89233501 Ry

     iteration # 15     ecut=    40.00 Ry     beta= 0.10
     Davidson diagonalization with overlap
     ethr =  6.40E-03,  avg # of iterations = 12.0

     negative rho (up, down):  3.538E-01 0.000E+00
 
     Adding external electric field

     Computed dipole along edir(3) : 
        Dipole               11.7560 Ry au,         29.8808 Debye
        Dipole field          0.0323 Ry au, 
 
        E field amplitude [Ha a.u.]:  1.0000E-02
        Potential amp.       -2.5063 Ry
        Total length         56.1249 bohr
 

     total cpu time spent up to now is       18.0 secs

     WARNING: integrated charge=   238.01305045, expected=   238.00000000

     total energy              =   -4899.98594338 Ry
     estimated scf accuracy    <    1875.25899197 Ry

     iteration # 16     ecut=    40.00 Ry     beta= 0.10
     Davidson diagonalization with overlap
     ethr =  6.40E-03,  avg # of iterations =  2.0

     negative rho (up, down):  5.055E-01 0.000E+00
 
     Adding external electric field

     Computed dipole along edir(3) : 
        Dipole               17.0538 Ry au,         43.3464 Debye
        Dipole field          0.0469 Ry au, 
 
        E field amplitude [Ha a.u.]:  1.0000E-02
        Potential amp.       -4.1416 Ry
        Total length         56.1249 bohr
 

     total cpu time spent up to now is       18.7 secs

     WARNING: integrated charge=   238.04028290, expected=   238.00000000

     total energy              =   -4903.82716494 Ry
     estimated scf accuracy    <    1126.04669961 Ry

     iteration # 17     ecut=    40.00 Ry     beta= 0.10
     Davidson diagonalization with overlap
     ethr =  6.40E-03,  avg # of iterations =  8.0

     negative rho (up, down):  4.859E-02 0.000E+00
 
     Adding external electric field

     Computed dipole along edir(3) : 
        Dipole               17.4016 Ry au,         44.2305 Debye
        Dipole field          0.0479 Ry au, 
 
        E field amplitude [Ha a.u.]:  1.0000E-02
        Potential amp.       -4.2490 Ry
        Total length         56.1249 bohr
 

     total cpu time spent up to now is       19.6 secs

     WARNING: integrated charge=   238.01499057, expected=   238.00000000

     total energy              =   -4853.49475109 Ry
     estimated scf accuracy    <    3405.62901978 Ry

     iteration # 18     ecut=    40.00 Ry     beta= 0.10
     Davidson diagonalization with overlap
     ethr =  6.40E-03,  avg # of iterations =  7.5

     negative rho (up, down):  2.005E-02 0.000E+00
 
     Adding external electric field

     Computed dipole along edir(3) : 
        Dipole               16.6761 Ry au,         42.3865 Debye
        Dipole field          0.0459 Ry au, 
 
        E field amplitude [Ha a.u.]:  1.0000E-02
        Potential amp.       -4.0250 Ry
        Total length         56.1249 bohr
 

     total cpu time spent up to now is       20.7 secs

     WARNING: integrated charge=   238.00417290, expected=   238.00000000

     total energy              =   -4891.32365461 Ry
     estimated scf accuracy    <       5.46949821 Ry

     iteration # 19     ecut=    40.00 Ry     beta= 0.10
     Davidson diagonalization with overlap
     ethr =  2.30E-03,  avg # of iterations = 11.0

     negative rho (up, down):  7.109E-02 0.000E+00
 
     Adding external electric field

     Computed dipole along edir(3) : 
        Dipole               13.2105 Ry au,         33.5777 Debye
        Dipole field          0.0363 Ry au, 
 
        E field amplitude [Ha a.u.]:  1.0000E-02
        Potential amp.       -2.9553 Ry
        Total length         56.1249 bohr
 

     total cpu time spent up to now is       21.8 secs

     WARNING: integrated charge=   238.00331222, expected=   238.00000000

     total energy              =   -4890.45002697 Ry
     estimated scf accuracy    <       5.15344930 Ry

     iteration # 20     ecut=    40.00 Ry     beta= 0.10
     Davidson diagonalization with overlap
     ethr =  2.17E-03,  avg # of iterations =  2.0

     negative rho (up, down):  1.295E-01 0.000E+00
 
     Adding external electric field

     Computed dipole along edir(3) : 
        Dipole                7.8042 Ry au,         19.8362 Debye
        Dipole field          0.0215 Ry au, 
 
        E field amplitude [Ha a.u.]:  1.0000E-02
        Potential amp.       -1.2865 Ry
        Total length         56.1249 bohr
 

     total cpu time spent up to now is       22.4 secs

     WARNING: integrated charge=   237.99830476, expected=   238.00000000

     total energy              =   -4889.47249947 Ry
     estimated scf accuracy    <       3.20336657 Ry

     iteration # 21     ecut=    40.00 Ry     beta= 0.10
     Davidson diagonalization with overlap
     ethr =  1.35E-03,  avg # of iterations =  8.0

     negative rho (up, down):  1.686E-01 0.000E+00
 
     Adding external electric field

     Computed dipole along edir(3) : 
        Dipole                5.1306 Ry au,         13.0408 Debye
        Dipole field          0.0141 Ry au, 
 
        E field amplitude [Ha a.u.]:  1.0000E-02
        Potential amp.       -0.4612 Ry
        Total length         56.1249 bohr
 

     total cpu time spent up to now is       23.3 secs

     WARNING: integrated charge=   238.00206113, expected=   238.00000000

     total energy              =   -4889.19922995 Ry
     estimated scf accuracy    <       2.86685208 Ry

     iteration # 22     ecut=    40.00 Ry     beta= 0.10
     Davidson diagonalization with overlap
     ethr =  1.20E-03,  avg # of iterations = 10.0

     negative rho (up, down):  1.907E-01 0.000E+00
 
     Adding external electric field

     Computed dipole along edir(3) : 
        Dipole                4.1589 Ry au,         10.5708 Debye
        Dipole field          0.0114 Ry au, 
 
        E field amplitude [Ha a.u.]:  1.0000E-02
        Potential amp.       -0.1612 Ry
        Total length         56.1249 bohr
 

     total cpu time spent up to now is       24.4 secs

     WARNING: integrated charge=   238.00210654, expected=   238.00000000

     total energy              =   -4889.15625170 Ry
     estimated scf accuracy    <       3.35762524 Ry

     iteration # 23     ecut=    40.00 Ry     beta= 0.10
     Davidson diagonalization with overlap
     ethr =  1.20E-03,  avg # of iterations =  5.5

     negative rho (up, down):  1.918E-01 0.000E+00
 
     Adding external electric field

     Computed dipole along edir(3) : 
        Dipole                4.1198 Ry au,         10.4714 Debye
        Dipole field          0.0113 Ry au, 
 
        E field amplitude [Ha a.u.]:  1.0000E-02
        Potential amp.       -0.1492 Ry
        Total length         56.1249 bohr
 

     total cpu time spent up to now is       25.2 secs

     WARNING: integrated charge=   238.00236252, expected=   238.00000000

     total energy              =   -4889.23206734 Ry
     estimated scf accuracy    <       7.08876234 Ry

     iteration # 24     ecut=    40.00 Ry     beta= 0.10
     Davidson diagonalization with overlap
     ethr =  1.20E-03,  avg # of iterations =  1.0

     negative rho (up, down):  1.882E-01 0.000E+00
 
     Adding external electric field

     Computed dipole along edir(3) : 
        Dipole                4.4264 Ry au,         11.2509 Debye
        Dipole field          0.0122 Ry au, 
 
        E field amplitude [Ha a.u.]:  1.0000E-02
        Potential amp.       -0.2438 Ry
        Total length         56.1249 bohr
 

     total cpu time spent up to now is       25.8 secs

     WARNING: integrated charge=   238.00487132, expected=   238.00000000

     total energy              =   -4889.15065031 Ry
     estimated scf accuracy    <       6.88802574 Ry

     iteration # 25     ecut=    40.00 Ry     beta= 0.10
     Davidson diagonalization with overlap
     ethr =  1.20E-03,  avg # of iterations =  1.5

     negative rho (up, down):  2.152E-01 0.000E+00
 
     Adding external electric field

     Computed dipole along edir(3) : 
        Dipole                4.0667 Ry au,         10.3366 Debye
        Dipole field          0.0112 Ry au, 
 
        E field amplitude [Ha a.u.]:  1.0000E-02
        Potential amp.       -0.1328 Ry
        Total length         56.1249 bohr
 

     total cpu time spent up to now is       26.4 secs

     WARNING: integrated charge=   238.01084739, expected=   238.00000000

     total energy              =   -4889.06388257 Ry
     estimated scf accuracy    <       5.79953839 Ry

     iteration # 26     ecut=    40.00 Ry     beta= 0.10
     Davidson diagonalization with overlap
     ethr =  1.20E-03,  avg # of iterations =  4.5

     negative rho (up, down):  1.805E-01 0.000E+00
 
     Adding external electric field

     Computed dipole along edir(3) : 
        Dipole                3.3638 Ry au,          8.5500 Debye
        Dipole field          0.0093 Ry au, 
 
        E field amplitude [Ha a.u.]:  1.0000E-02
        Potential amp.        0.0842 Ry
        Total length         56.1249 bohr
 

     total cpu time spent up to now is       27.1 secs

     WARNING: integrated charge=   238.00822299, expected=   238.00000000

     total energy              =   -4888.86058703 Ry
     estimated scf accuracy    <      15.01990368 Ry

     iteration # 27     ecut=    40.00 Ry     beta= 0.10
     Davidson diagonalization with overlap
     ethr =  1.20E-03,  avg # of iterations =  4.5

     negative rho (up, down):  1.436E-01 0.000E+00
 
     Adding external electric field

     Computed dipole along edir(3) : 
        Dipole                4.4344 Ry au,         11.2710 Debye
        Dipole field          0.0122 Ry au, 
 
        E field amplitude [Ha a.u.]:  1.0000E-02
        Potential amp.       -0.2463 Ry
        Total length         56.1249 bohr
 

     total cpu time spent up to now is       27.9 secs

     WARNING: integrated charge=   238.00790617, expected=   238.00000000

     total energy              =   -4888.76741440 Ry
     estimated scf accuracy    <       3.25358954 Ry

     iteration # 28     ecut=    40.00 Ry     beta= 0.10
     Davidson diagonalization with overlap
     ethr =  1.20E-03,  avg # of iterations =  6.5

     negative rho (up, down):  1.574E-01 0.000E+00
 
     Adding external electric field

     Computed dipole along edir(3) : 
        Dipole                3.4585 Ry au,          8.7907 Debye
        Dipole field          0.0095 Ry au, 
 
        E field amplitude [Ha a.u.]:  1.0000E-02
        Potential amp.        0.0549 Ry
        Total length         56.1249 bohr
 

     total cpu time spent up to now is       28.8 secs

     WARNING: integrated charge=   238.00786632, expected=   238.00000000

     total energy              =   -4888.94327699 Ry
     estimated scf accuracy    <       0.19199766 Ry

     iteration # 29     ecut=    40.00 Ry     beta= 0.10
     Davidson diagonalization with overlap
     ethr =  8.07E-05,  avg # of iterations =  9.5

     negative rho (up, down):  1.657E-01 0.000E+00
 
     Adding external electric field

     Computed dipole along edir(3) : 
        Dipole                3.0942 Ry au,          7.8647 Debye
        Dipole field          0.0085 Ry au, 
 
        E field amplitude [Ha a.u.]:  1.0000E-02
        Potential amp.        0.1674 Ry
        Total length         56.1249 bohr
 

     total cpu time spent up to now is       29.8 secs

     WARNING: integrated charge=   238.00739364, expected=   238.00000000

     total energy              =   -4888.94555291 Ry
     estimated scf accuracy    <       0.09619053 Ry

     iteration # 30     ecut=    40.00 Ry     beta= 0.10
     Davidson diagonalization with overlap
     ethr =  4.04E-05,  avg # of iterations = 13.5

     negative rho (up, down):  1.584E-01 0.000E+00
 
     Adding external electric field

     Computed dipole along edir(3) : 
        Dipole                3.0354 Ry au,          7.7153 Debye
        Dipole field          0.0083 Ry au, 
 
        E field amplitude [Ha a.u.]:  1.0000E-02
        Potential amp.        0.1855 Ry
        Total length         56.1249 bohr
 

     total cpu time spent up to now is       31.1 secs

     WARNING: integrated charge=   238.00601029, expected=   238.00000000

     total energy              =   -4888.94556218 Ry
     estimated scf accuracy    <       0.07969144 Ry

     iteration # 31     ecut=    40.00 Ry     beta= 0.10
     Davidson diagonalization with overlap
     ethr =  3.35E-05,  avg # of iterations =  1.5

     negative rho (up, down):  1.484E-01 0.000E+00
 
     Adding external electric field

     Computed dipole along edir(3) : 
        Dipole                2.9863 Ry au,          7.5903 Debye
        Dipole field          0.0082 Ry au, 
 
        E field amplitude [Ha a.u.]:  1.0000E-02
        Potential amp.        0.2007 Ry
        Total length         56.1249 bohr
 

     total cpu time spent up to now is       31.7 secs

     WARNING: integrated charge=   238.00479800, expected=   238.00000000

     total energy              =   -4888.94235766 Ry
     estimated scf accuracy    <       0.08844450 Ry

     iteration # 32     ecut=    40.00 Ry     beta= 0.10
     Davidson diagonalization with overlap
     ethr =  3.35E-05,  avg # of iterations =  4.5

     negative rho (up, down):  1.445E-01 0.000E+00
 
     Adding external electric field

     Computed dipole along edir(3) : 
        Dipole                2.9504 Ry au,          7.4991 Debye
        Dipole field          0.0081 Ry au, 
 
        E field amplitude [Ha a.u.]:  1.0000E-02
        Potential amp.        0.2118 Ry
        Total length         56.1249 bohr
 

     total cpu time spent up to now is       32.4 secs

     WARNING: integrated charge=   238.00353758, expected=   238.00000000

     total energy              =   -4888.94325568 Ry
     estimated scf accuracy    <       0.05905606 Ry

     iteration # 33     ecut=    40.00 Ry     beta= 0.10
     Davidson diagonalization with overlap
     ethr =  2.48E-05,  avg # of iterations =  5.0

     negative rho (up, down):  1.378E-01 0.000E+00
 
     Adding external electric field

     Computed dipole along edir(3) : 
        Dipole                2.8415 Ry au,          7.2224 Debye
        Dipole field          0.0078 Ry au, 
 
        E field amplitude [Ha a.u.]:  1.0000E-02
        Potential amp.        0.2454 Ry
        Total length         56.1249 bohr
 

     total cpu time spent up to now is       33.2 secs

     WARNING: integrated charge=   238.00301917, expected=   238.00000000

     total energy              =   -4888.93935216 Ry
     estimated scf accuracy    <       0.05838481 Ry

     iteration # 34     ecut=    40.00 Ry     beta= 0.10
     Davidson diagonalization with overlap
     ethr =  2.45E-05,  avg # of iterations =  5.5

     negative rho (up, down):  1.301E-01 0.000E+00
 
     Adding external electric field

     Computed dipole along edir(3) : 
        Dipole                2.7764 Ry au,          7.0569 Debye
        Dipole field          0.0076 Ry au, 
 
        E field amplitude [Ha a.u.]:  1.0000E-02
        Potential amp.        0.2655 Ry
        Total length         56.1249 bohr
 

     total cpu time spent up to now is       34.0 secs

     WARNING: integrated charge=   238.00317907, expected=   238.00000000

     total energy              =   -4888.93591786 Ry
     estimated scf accuracy    <       0.05233799 Ry

     iteration # 35     ecut=    40.00 Ry     beta= 0.10
     Davidson diagonalization with overlap
     ethr =  2.20E-05,  avg # of iterations =  7.5

     negative rho (up, down):  1.208E-01 0.000E+00
 
     Adding external electric field

     Computed dipole along edir(3) : 
        Dipole                2.6313 Ry au,          6.6881 Debye
        Dipole field          0.0072 Ry au, 
 
        E field amplitude [Ha a.u.]:  1.0000E-02
        Potential amp.        0.3103 Ry
        Total length         56.1249 bohr
 

     total cpu time spent up to now is       34.9 secs

     WARNING: integrated charge=   238.00385179, expected=   238.00000000

     total energy              =   -4888.93175448 Ry
     estimated scf accuracy    <       0.04828561 Ry

     iteration # 36     ecut=    40.00 Ry     beta= 0.10
     Davidson diagonalization with overlap
     ethr =  2.03E-05,  avg # of iterations = 11.0

     negative rho (up, down):  1.019E-01 0.000E+00
 
     Adding external electric field

     Computed dipole along edir(3) : 
        Dipole                1.5377 Ry au,          3.9085 Debye
        Dipole field          0.0042 Ry au, 
 
        E field amplitude [Ha a.u.]:  1.0000E-02
        Potential amp.        0.6478 Ry
        Total length         56.1249 bohr
 

     total cpu time spent up to now is       35.9 secs

     WARNING: integrated charge=   238.00660356, expected=   238.00000000

     total energy              =   -4888.91404981 Ry
     estimated scf accuracy    <       0.04139472 Ry

     iteration # 37     ecut=    40.00 Ry     beta= 0.10
     Davidson diagonalization with overlap
     ethr =  1.74E-05,  avg # of iterations = 12.5

     negative rho (up, down):  8.979E-02 0.000E+00
 
     Adding external electric field

     Computed dipole along edir(3) : 
        Dipole                2.2727 Ry au,          5.7767 Debye
        Dipole field          0.0062 Ry au, 
 
        E field amplitude [Ha a.u.]:  1.0000E-02
        Potential amp.        0.4210 Ry
        Total length         56.1249 bohr
 

     total cpu time spent up to now is       37.2 secs

     WARNING: integrated charge=   238.00491240, expected=   238.00000000

     total energy              =   -4888.76046912 Ry
     estimated scf accuracy    <       6.25510981 Ry

     iteration # 38     ecut=    40.00 Ry     beta= 0.10
     Davidson diagonalization with overlap
     ethr =  1.74E-05,  avg # of iterations = 12.0

     negative rho (up, down):  8.265E-02 0.000E+00
 
     Adding external electric field

     Computed dipole along edir(3) : 
        Dipole                2.4599 Ry au,          6.2525 Debye
        Dipole field          0.0068 Ry au, 
 
        E field amplitude [Ha a.u.]:  1.0000E-02
        Potential amp.        0.3632 Ry
        Total length         56.1249 bohr
 

     total cpu time spent up to now is       38.4 secs

     WARNING: integrated charge=   238.00344437, expected=   238.00000000

     total energy              =   -4888.91536119 Ry
     estimated scf accuracy    <       0.01992583 Ry

     iteration # 39     ecut=    40.00 Ry     beta= 0.10
     Davidson diagonalization with overlap
     ethr =  8.37E-06,  avg # of iterations = 14.0

     negative rho (up, down):  6.356E-02 0.000E+00
 
     Adding external electric field

     Computed dipole along edir(3) : 
        Dipole                2.7057 Ry au,          6.8773 Debye
        Dipole field          0.0074 Ry au, 
 
        E field amplitude [Ha a.u.]:  1.0000E-02
        Potential amp.        0.2873 Ry
        Total length         56.1249 bohr
 

     total cpu time spent up to now is       39.6 secs

     WARNING: integrated charge=   238.00043355, expected=   238.00000000

     total energy              =   -4888.91588599 Ry
     estimated scf accuracy    <       0.01999502 Ry

     iteration # 40     ecut=    40.00 Ry     beta= 0.10
     Davidson diagonalization with overlap
     ethr =  8.37E-06,  avg # of iterations = 15.5

     negative rho (up, down):  2.678E-02 0.000E+00
 
     Adding external electric field

     Computed dipole along edir(3) : 
        Dipole                2.7970 Ry au,          7.1093 Debye
        Dipole field          0.0077 Ry au, 
 
        E field amplitude [Ha a.u.]:  1.0000E-02
        Potential amp.        0.2591 Ry
        Total length         56.1249 bohr
 

     total cpu time spent up to now is       41.0 secs

     WARNING: integrated charge=   237.99938863, expected=   238.00000000

     total energy              =   -4888.92431396 Ry
     estimated scf accuracy    <       0.02747179 Ry

     iteration # 41     ecut=    40.00 Ry     beta= 0.10
     Davidson diagonalization with overlap
     ethr =  8.37E-06,  avg # of iterations = 18.5

     negative rho (up, down):  1.152E-02 0.000E+00
 
     Adding external electric field

     Computed dipole along edir(3) : 
        Dipole                2.4376 Ry au,          6.1957 Debye
        Dipole field          0.0067 Ry au, 
 
        E field amplitude [Ha a.u.]:  1.0000E-02
        Potential amp.        0.3701 Ry
        Total length         56.1249 bohr
 

     total cpu time spent up to now is       42.5 secs

     WARNING: integrated charge=   238.00129958, expected=   238.00000000

     total energy              =   -4888.91889286 Ry
     estimated scf accuracy    <       0.04626316 Ry

     iteration # 42     ecut=    40.00 Ry     beta= 0.10
     Davidson diagonalization with overlap
     ethr =  8.37E-06,  avg # of iterations = 15.0

     negative rho (up, down):  9.625E-03 0.000E+00
 
     Adding external electric field

     Computed dipole along edir(3) : 
        Dipole                2.2893 Ry au,          5.8188 Debye
        Dipole field          0.0063 Ry au, 
 
        E field amplitude [Ha a.u.]:  1.0000E-02
        Potential amp.        0.4158 Ry
        Total length         56.1249 bohr
 

     total cpu time spent up to now is       43.8 secs

     WARNING: integrated charge=   238.00114257, expected=   238.00000000

     total energy              =   -4888.91600039 Ry
     estimated scf accuracy    <       0.03378877 Ry

     iteration # 43     ecut=    40.00 Ry     beta= 0.10
     Davidson diagonalization with overlap
     c_bands:  1 eigenvalues not converged
     ethr =  8.37E-06,  avg # of iterations = 17.0

     negative rho (up, down):  3.699E-03 0.000E+00
 
     Adding external electric field

     Computed dipole along edir(3) : 
        Dipole                2.1853 Ry au,          5.5544 Debye
        Dipole field          0.0060 Ry au, 
 
        E field amplitude [Ha a.u.]:  1.0000E-02
        Potential amp.        0.4480 Ry
        Total length         56.1249 bohr
 

     total cpu time spent up to now is       45.0 secs

     WARNING: integrated charge=   238.00049188, expected=   238.00000000

     total energy              =   -4888.91388962 Ry
     estimated scf accuracy    <       0.02721578 Ry

     iteration # 44     ecut=    40.00 Ry     beta= 0.10
     Davidson diagonalization with overlap
     ethr =  8.37E-06,  avg # of iterations = 11.0

     negative rho (up, down):  2.324E-03 0.000E+00
 
     Adding external electric field

     Computed dipole along edir(3) : 
        Dipole                2.0658 Ry au,          5.2507 Debye
        Dipole field          0.0057 Ry au, 
 
        E field amplitude [Ha a.u.]:  1.0000E-02
        Potential amp.        0.4848 Ry
        Total length         56.1249 bohr
 

     total cpu time spent up to now is       46.1 secs

     WARNING: integrated charge=   238.00060899, expected=   238.00000000

     total energy              =   -4888.91135917 Ry
     estimated scf accuracy    <       0.02480282 Ry

     iteration # 45     ecut=    40.00 Ry     beta= 0.10
     Davidson diagonalization with overlap
     ethr =  8.37E-06,  avg # of iterations =  7.0

     negative rho (up, down):  2.401E-03 0.000E+00
 
     Adding external electric field

     Computed dipole along edir(3) : 
        Dipole                2.0270 Ry au,          5.1521 Debye
        Dipole field          0.0056 Ry au, 
 
        E field amplitude [Ha a.u.]:  1.0000E-02
        Potential amp.        0.4968 Ry
        Total length         56.1249 bohr
 

     total cpu time spent up to now is       46.9 secs

     WARNING: integrated charge=   238.00053386, expected=   238.00000000

     total energy              =   -4888.91056260 Ry
     estimated scf accuracy    <       0.02018831 Ry

     iteration # 46     ecut=    40.00 Ry     beta= 0.10
     Davidson diagonalization with overlap
     ethr =  8.37E-06,  avg # of iterations =  2.0

     negative rho (up, down):  3.575E-02 0.000E+00
 
     Adding external electric field

     Computed dipole along edir(3) : 
        Dipole                1.1572 Ry au,          2.9414 Debye
        Dipole field          0.0032 Ry au, 
 
        E field amplitude [Ha a.u.]:  1.0000E-02
        Potential amp.        0.7653 Ry
        Total length         56.1249 bohr
 

     total cpu time spent up to now is       47.6 secs

     WARNING: integrated charge=   238.00011371, expected=   238.00000000

     total energy              =   -4888.89920446 Ry
     estimated scf accuracy    <       0.01906761 Ry

     iteration # 47     ecut=    40.00 Ry     beta= 0.10
     Davidson diagonalization with overlap
     ethr =  8.01E-06,  avg # of iterations = 15.0

     negative rho (up, down):  2.440E-02 0.000E+00
 
     Adding external electric field

     Computed dipole along edir(3) : 
        Dipole                0.9929 Ry au,          2.5236 Debye
        Dipole field          0.0027 Ry au, 
 
        E field amplitude [Ha a.u.]:  1.0000E-02
        Potential amp.        0.8160 Ry
        Total length         56.1249 bohr
 

     total cpu time spent up to now is       49.0 secs

     WARNING: integrated charge=   238.00161803, expected=   238.00000000

     total energy              =   -4888.89943047 Ry
     estimated scf accuracy    <       0.00183249 Ry

     iteration # 48     ecut=    40.00 Ry     beta= 0.10
     Davidson diagonalization with overlap
     ethr =  7.70E-07,  avg # of iterations = 13.0

     negative rho (up, down):  1.027E-02 0.000E+00
 
     Adding external electric field

     Computed dipole along edir(3) : 
        Dipole                0.8475 Ry au,          2.1541 Debye
        Dipole field          0.0023 Ry au, 
 
        E field amplitude [Ha a.u.]:  1.0000E-02
        Potential amp.        0.8609 Ry
        Total length         56.1249 bohr
 

     total cpu time spent up to now is       50.2 secs

     WARNING: integrated charge=   238.00152855, expected=   238.00000000

     total energy              =   -4888.89892081 Ry
     estimated scf accuracy    <       0.00077843 Ry

     iteration # 49     ecut=    40.00 Ry     beta= 0.10
     Davidson diagonalization with overlap
     ethr =  3.27E-07,  avg # of iterations =  9.5

     negative rho (up, down):  8.563E-03 0.000E+00
 
     Adding external electric field

     Computed dipole along edir(3) : 
        Dipole                0.7856 Ry au,          1.9969 Debye
        Dipole field          0.0022 Ry au, 
 
        E field amplitude [Ha a.u.]:  1.0000E-02
        Potential amp.        0.8800 Ry
        Total length         56.1249 bohr
 

     total cpu time spent up to now is       51.2 secs

     WARNING: integrated charge=   238.00122906, expected=   238.00000000

     total energy              =   -4888.89889896 Ry
     estimated scf accuracy    <       0.00017572 Ry

     iteration # 50     ecut=    40.00 Ry     beta= 0.10
     Davidson diagonalization with overlap
     ethr =  7.38E-08,  avg # of iterations =  2.0

     negative rho (up, down):  5.382E-03 0.000E+00
 
     Adding external electric field

     Computed dipole along edir(3) : 
        Dipole                0.7982 Ry au,          2.0287 Debye
        Dipole field          0.0022 Ry au, 
 
        E field amplitude [Ha a.u.]:  1.0000E-02
        Potential amp.        0.8761 Ry
        Total length         56.1249 bohr
 

     total cpu time spent up to now is       51.9 secs

     WARNING: integrated charge=   238.00082983, expected=   238.00000000

     total energy              =   -4888.89885927 Ry
     estimated scf accuracy    <       0.00009046 Ry

     iteration # 51     ecut=    40.00 Ry     beta= 0.10
     Davidson diagonalization with overlap
     ethr =  3.80E-08,  avg # of iterations = 10.0

     negative rho (up, down):  4.470E-03 0.000E+00
 
     Adding external electric field

     Computed dipole along edir(3) : 
        Dipole                0.7892 Ry au,          2.0059 Debye
        Dipole field          0.0022 Ry au, 
 
        E field amplitude [Ha a.u.]:  1.0000E-02
        Potential amp.        0.8789 Ry
        Total length         56.1249 bohr
 

     total cpu time spent up to now is       52.9 secs

     WARNING: integrated charge=   238.00059294, expected=   238.00000000

     total energy              =   -4888.89888841 Ry
     estimated scf accuracy    <       0.00003724 Ry

     iteration # 52     ecut=    40.00 Ry     beta= 0.10
     Davidson diagonalization with overlap
     ethr =  1.56E-08,  avg # of iterations =  2.5

     negative rho (up, down):  3.769E-03 0.000E+00
 
     Adding external electric field

     Computed dipole along edir(3) : 
        Dipole                0.7919 Ry au,          2.0128 Debye
        Dipole field          0.0022 Ry au, 
 
        E field amplitude [Ha a.u.]:  1.0000E-02
        Potential amp.        0.8781 Ry
        Total length         56.1249 bohr
 

     total cpu time spent up to now is       53.6 secs

     WARNING: integrated charge=   238.00047671, expected=   238.00000000

     total energy              =   -4888.89889185 Ry
     estimated scf accuracy    <       0.00001661 Ry

     iteration # 53     ecut=    40.00 Ry     beta= 0.10
     Davidson diagonalization with overlap
     ethr =  6.98E-09,  avg # of iterations =  3.5

     negative rho (up, down):  2.784E-03 0.000E+00
 
     Adding external electric field

     Computed dipole along edir(3) : 
        Dipole                0.7917 Ry au,          2.0123 Debye
        Dipole field          0.0022 Ry au, 
 
        E field amplitude [Ha a.u.]:  1.0000E-02
        Potential amp.        0.8781 Ry
        Total length         56.1249 bohr
 

     total cpu time spent up to now is       54.3 secs

     WARNING: integrated charge=   238.00030892, expected=   238.00000000

     total energy              =   -4888.89888273 Ry
     estimated scf accuracy    <       0.00000819 Ry

     iteration # 54     ecut=    40.00 Ry     beta= 0.10
     Davidson diagonalization with overlap
     ethr =  3.44E-09,  avg # of iterations =  6.0

     negative rho (up, down):  2.071E-03 0.000E+00
 
     Adding external electric field

     Computed dipole along edir(3) : 
        Dipole                0.7826 Ry au,          1.9893 Debye
        Dipole field          0.0022 Ry au, 
 
        E field amplitude [Ha a.u.]:  1.0000E-02
        Potential amp.        0.8809 Ry
        Total length         56.1249 bohr
 

     total cpu time spent up to now is       55.1 secs

     WARNING: integrated charge=   238.00013834, expected=   238.00000000

     total energy              =   -4888.89887446 Ry
     estimated scf accuracy    <       0.00000298 Ry

     iteration # 55     ecut=    40.00 Ry     beta= 0.10
     Davidson diagonalization with overlap
     ethr =  1.25E-09,  avg # of iterations =  2.0

     negative rho (up, down):  1.884E-03 0.000E+00
 
     Adding external electric field

     Computed dipole along edir(3) : 
        Dipole                0.7795 Ry au,          1.9814 Debye
        Dipole field          0.0021 Ry au, 
 
        E field amplitude [Ha a.u.]:  1.0000E-02
        Potential amp.        0.8819 Ry
        Total length         56.1249 bohr
 

     total cpu time spent up to now is       55.7 secs

     End of self-consistent calculation

          k = 0.2500 0.1443 0.0000 ( 19495 PWs)   bands (ev):

  -112.9779-112.9717-112.9355-112.8401-112.7504-112.5862-112.5810-112.5726
  -112.5337-112.4574-112.4526-112.3721 -70.5212 -70.4923 -70.4438 -70.3355
   -70.3277 -70.2804 -70.2727 -70.2674 -70.2566 -70.2495 -70.2343 -70.1794
   -70.1616 -70.1448 -70.1183 -70.0371 -70.0124 -70.0019 -69.9939 -69.9710
   -69.9692 -69.9660 -69.9615 -69.9460 -69.9314 -69.9301 -69.9098 -69.8760
   -69.8649 -69.8448 -69.8346 -69.8084 -69.8043 -69.8040 -69.7553 -69.7410
   -23.3781 -10.6024  -8.3454  -7.3870  -6.9325  -6.8623  -6.0104  -5.4509
    -4.9722  -4.8527  -4.8501  -4.7364  -4.6312  -4.5881  -4.3507  -4.2835
    -4.2629  -4.1611  -4.1511  -4.0908  -3.7446  -3.7166  -3.6427  -3.5492
    -3.4305  -3.3360  -3.3193  -3.2778  -3.2589  -3.2510  -3.2021  -3.0975
    -3.0817  -3.0273  -2.9814  -2.9715  -2.9348  -2.9089  -2.8878  -2.7683
    -2.7059  -2.6839  -2.6134  -2.5691  -2.5151  -2.4714  -2.4330  -2.3765
    -2.3699  -2.3538  -2.2530  -2.2045  -2.1896  -2.0990  -2.0356  -2.0037
    -1.9945  -1.9690  -1.9230  -1.8872  -1.8791  -1.8370  -1.8044  -1.7768
    -1.7634  -1.7091  -1.6744  -1.6524  -1.1682  -0.5555  -0.3491  -0.0244
     0.4157   0.5823   0.7818   1.0792   1.7946   2.2640   2.4736   2.6655
     3.2526   3.6256   3.9069   4.6287   4.8278   4.8919   5.0016   5.5564
     5.7942   6.0501   6.1374   6.3418   6.5507   6.5546   6.6779

          k = 0.2500-0.4330 0.0000 ( 19534 PWs)   bands (ev):

  -112.9767-112.9729-112.9355-112.8400-112.7505-112.5843-112.5829-112.5724
  -112.5338-112.4557-112.4543-112.3721 -70.5093 -70.5034 -70.4433 -70.3330
   -70.3295 -70.2771 -70.2677 -70.2664 -70.2544 -70.2489 -70.2386 -70.1790
   -70.1617 -70.1537 -70.1181 -70.0185 -70.0096 -69.9965 -69.9895 -69.9791
   -69.9732 -69.9665 -69.9650 -69.9614 -69.9301 -69.9275 -69.8955 -69.8899
   -69.8646 -69.8458 -69.8387 -69.8068 -69.8058 -69.8042 -69.7569 -69.7409
   -23.3775 -10.4958  -7.6454  -7.2075  -6.9251  -6.9019  -5.8825  -5.8467
    -5.4204  -4.7679  -4.6900  -4.4578  -4.3473  -4.2524  -4.1627  -4.1417
    -4.0632  -3.9679  -3.8958  -3.8639  -3.7629  -3.7172  -3.6993  -3.6132
    -3.5965  -3.5630  -3.4771  -3.4261  -3.3802  -3.3329  -3.2331  -3.2117
    -3.1852  -3.1419  -3.1263  -3.0865  -3.0436  -3.0100  -2.9706  -2.9259
    -2.8513  -2.8055  -2.7994  -2.7771  -2.6733  -2.6232  -2.5785  -2.5523
    -2.5278  -2.4486  -2.4273  -2.3649  -2.3237  -2.2361  -2.2294  -2.1688
    -2.1249  -2.0994  -2.0476  -1.9831  -1.9159  -1.8773  -1.8671  -1.8466
    -1.8216  -1.7861  -1.6958  -1.6333  -1.4912  -1.2558  -0.7912   0.1748
     0.6478   1.2045   1.7434   2.0780   2.2234   2.7701   2.8363   3.3035
     3.4427   3.6665   3.6674   3.9516   4.6016   4.9516   5.2254   5.3656
     5.3805   5.7695   6.0726   6.2619   6.5024   6.5709   6.7271

     the Fermi energy is    -0.1856 ev

!    total energy              =   -4888.89887380 Ry
     estimated scf accuracy    <       0.00000062 Ry
     smearing contrib. (-TS)   =       0.00128325 Ry
     internal energy E=F+TS    =   -4888.90015705 Ry

     The total energy is F=E-TS. E is the sum of the following terms:
     one-electron contribution =  -54527.54073245 Ry
     hartree contribution      =   27268.27482528 Ry
     xc contribution           =    -476.13924683 Ry
     ewald contribution        =   22846.51891662 Ry
     electric field correction =      -0.01391966 Ry

     convergence has been achieved in  55 iterations

     negative rho (up, down):  1.884E-03 0.000E+00

     Forces acting on atoms (cartesian axes, Ry/au):

     atom    1 type  1   force =    -0.00164812   -0.00131213   -0.00100011
     atom    2 type  1   force =     0.00016759    0.00018030   -0.00111795
     atom    3 type  1   force =    -0.00011509    0.00059391    0.00007504
     atom    4 type  1   force =    -0.00070763    0.00088040    0.00076405
     atom    5 type  1   force =     0.00022691    0.00029193   -0.00092550
     atom    6 type  1   force =    -0.00039188    0.00042173   -0.00090301
     atom    7 type  1   force =     0.00043687   -0.00133030    0.00085019
     atom    8 type  1   force =     0.00008796    0.00040434   -0.00053092
     atom    9 type  1   force =     0.00031933   -0.00035701   -0.00114439
     atom   10 type  1   force =     0.00001024   -0.00034323    0.00332385
     atom   11 type  1   force =     0.00036886    0.00009877   -0.00045097
     atom   12 type  1   force =     0.00024773    0.00002896   -0.00041458
     atom   13 type  2   force =     0.00122121    0.00052874   -0.01593673
     atom   14 type  3   force =    -0.00022400   -0.00008641    0.01741101
     The non-local contrib.  to forces
     atom    1 type  1   force =    -0.01261526   -0.00852149   -0.23573766
     atom    2 type  1   force =    -0.02073116   -0.01248388    0.01216763
     atom    3 type  1   force =     0.09263770    0.05324483    0.30098628
     atom    4 type  1   force =    -0.01079745    0.02245535   -0.26820353
     atom    5 type  1   force =    -0.04888679    0.05290105   -0.03387070
     atom    6 type  1   force =     0.14227332   -0.17218682    0.22906047
     atom    7 type  1   force =     0.01240665   -0.02049870   -0.26813846
     atom    8 type  1   force =     0.02066143   -0.06812360   -0.03221471
     atom    9 type  1   force =    -0.07776951    0.20818651    0.22940835
     atom   10 type  1   force =    -0.00734018   -0.00352173   -0.29766318
     atom   11 type  1   force =     0.02679238    0.01519574   -0.08247196
     atom   12 type  1   force =    -0.18253927   -0.10583152    0.22447650
     atom   13 type  2   force =    -0.00302306   -0.01163629   -2.35184873
     atom   14 type  3   force =     0.02090315    0.01476334    0.47726121
     The ionic contribution  to forces
     atom    1 type  1   force =    -0.64323978   -0.38395821 -371.49090868
     atom    2 type  1   force =     0.71663353    0.41853411  -24.44118466
     atom    3 type  1   force =     1.03071496    0.66023688  322.13901659
     atom    4 type  1   force =    -0.07104273    0.95118992 -371.80001731
     atom    5 type  1   force =    -0.06844534   -0.37995306  -22.99674277
     atom    6 type  1   force =    -4.06914940    1.03349791  330.99129080
     atom    7 type  1   force =     0.80686406   -0.56524434 -371.85339638
     atom    8 type  1   force =    -0.39310111    0.13456917  -22.72781986
     atom    9 type  1   force =    -1.11269641   -4.08249739  331.83110135
     atom   10 type  1   force =     0.18511374    0.06941140 -372.73217601
     atom   11 type  1   force =     0.09091135    0.08219159  -14.39620654
     atom   12 type  1   force =     3.53771597    2.01821860  333.84649315
     atom   13 type  2   force =    -0.01703660    0.04167376  157.62131553
     atom   14 type  3   force =     0.00675776    0.00212965   96.00923477
     The local contribution  to forces
     atom    1 type  1   force =     0.65435591    0.39147040  371.42499582
     atom    2 type  1   force =    -0.69552334   -0.40551934   24.13132891
     atom    3 type  1   force =    -1.12319978   -0.71317037 -322.73861832
     atom    4 type  1   force =     0.08094831   -0.97302171  371.76858119
     atom    5 type  1   force =     0.11746579    0.32686995   22.73325150
     atom    6 type  1   force =     3.92749710   -0.86148534 -331.51959659
     atom    7 type  1   force =    -0.81888725    0.58450706  371.82139090
     atom    8 type  1   force =     0.37234061   -0.06578364   22.46238218
     atom    9 type  1   force =     1.19037994    3.87488024 -332.36031067
     atom   10 type  1   force =    -0.17752177   -0.06634307  372.73191944
     atom   11 type  1   force =    -0.11720641   -0.09739175   14.18104358
     atom   12 type  1   force =    -3.35614702   -1.91264580 -334.36964059
     atom   13 type  2   force =     0.02129448   -0.02952950 -155.38660944
     atom   14 type  3   force =    -0.02766393   -0.01685279  -96.53577349
     The core correction contribution to forces
     atom    1 type  1   force =    -0.00000182   -0.00000201    0.00023195
     atom    2 type  1   force =    -0.00003113   -0.00001957   -0.00004839
     atom    3 type  1   force =    -0.00005298   -0.00002964   -0.00028856
     atom    4 type  1   force =    -0.00001126   -0.00002612    0.00034205
     atom    5 type  1   force =     0.00003930   -0.00004237    0.00003484
     atom    6 type  1   force =     0.00008614    0.00008367   -0.00037707
     atom    7 type  1   force =    -0.00002722    0.00000657    0.00034107
     atom    8 type  1   force =    -0.00001868    0.00005779    0.00003339
     atom    9 type  1   force =     0.00011454    0.00003429   -0.00037880
     atom   10 type  1   force =    -0.00002471   -0.00001882    0.00046276
     atom   11 type  1   force =    -0.00003256   -0.00002072    0.00010290
     atom   12 type  1   force =     0.00004194    0.00002449   -0.00038526
     atom   13 type  2   force =    -0.00000635    0.00002638    0.00679609
     atom   14 type  3   force =    -0.00023765   -0.00012747    0.00388053
     The Hubbard contrib.    to forces
     atom    1 type  1   force =     0.00000000    0.00000000    0.00000000
     atom    2 type  1   force =     0.00000000    0.00000000    0.00000000
     atom    3 type  1   force =     0.00000000    0.00000000    0.00000000
     atom    4 type  1   force =     0.00000000    0.00000000    0.00000000
     atom    5 type  1   force =     0.00000000    0.00000000    0.00000000
     atom    6 type  1   force =     0.00000000    0.00000000    0.00000000
     atom    7 type  1   force =     0.00000000    0.00000000    0.00000000
     atom    8 type  1   force =     0.00000000    0.00000000    0.00000000
     atom    9 type  1   force =     0.00000000    0.00000000    0.00000000
     atom   10 type  1   force =     0.00000000    0.00000000    0.00000000
     atom   11 type  1   force =     0.00000000    0.00000000    0.00000000
     atom   12 type  1   force =     0.00000000    0.00000000    0.00000000
     atom   13 type  2   force =     0.00000000    0.00000000    0.00000000
     atom   14 type  3   force =     0.00000000    0.00000000    0.00000000
     The SCF correction term to forces
     atom    1 type  1   force =     0.00000000    0.00000000    0.00000000
     atom    2 type  1   force =    -0.00017253   -0.00033071   -0.00169660
     atom    3 type  1   force =    -0.00020722    0.00031251    0.00066389
     atom    4 type  1   force =     0.00000000    0.00000000    0.00000000
     atom    5 type  1   force =     0.00006174    0.00051665   -0.00191351
     atom    6 type  1   force =    -0.00109125    0.00051259    0.00040423
     atom    7 type  1   force =     0.00000000    0.00000000    0.00000000
     atom    8 type  1   force =     0.00021349   -0.00031507   -0.00122708
     atom    9 type  1   force =     0.00029856   -0.00096037    0.00072023
     atom   10 type  1   force =     0.00000000    0.00000000    0.00000000
     atom   11 type  1   force =    -0.00008811    0.00012420   -0.00123411
     atom   12 type  1   force =     0.00118389    0.00026348    0.00032647
     atom   13 type  2   force =     0.00000053   -0.00000532    0.00035989
     atom   14 type  3   force =     0.00002445    0.00000116    0.00018348

     Total force =     0.023777     Total SCF correction =     0.003952
     SCF correction compared to forces is large: reduce conv_thr to get better values

     Writing all to output data dir ./output/opt.save/
 
     init_run     :      0.54s CPU      0.61s WALL (       1 calls)
     electrons    :     51.55s CPU     54.98s WALL (       1 calls)
     forces       :      0.28s CPU      0.32s WALL (       1 calls)

     Called by init_run:
     wfcinit      :      0.16s CPU      0.17s WALL (       1 calls)
     potinit      :      0.09s CPU      0.09s WALL (       1 calls)
     hinit0       :      0.17s CPU      0.17s WALL (       1 calls)

     Called by electrons:
     c_bands      :     41.18s CPU     41.52s WALL (      55 calls)
     sum_band     :      6.19s CPU      7.80s WALL (      55 calls)
     v_of_rho     :      0.93s CPU      0.97s WALL (      56 calls)
     newd         :      2.92s CPU      4.34s WALL (      56 calls)
     mix_rho      :      0.27s CPU      0.27s WALL (      55 calls)

     Called by c_bands:
     init_us_2    :      0.19s CPU      0.20s WALL (     224 calls)
     init_us_2:cp :      0.19s CPU      0.20s WALL (     224 calls)
     cegterg      :     38.59s CPU     38.86s WALL (     112 calls)

     Called by *egterg:
     cdiaghg      :     17.49s CPU     17.53s WALL (     920 calls)
     h_psi        :     13.48s CPU     13.66s WALL (     922 calls)
     s_psi        :      1.15s CPU      1.16s WALL (     922 calls)
     g_psi        :      0.05s CPU      0.05s WALL (     808 calls)

     Called by h_psi:
     h_psi:calbec :      1.39s CPU      1.41s WALL (     922 calls)
     vloc_psi     :     10.72s CPU     10.86s WALL (     922 calls)
     add_vuspsi   :      1.25s CPU      1.26s WALL (     922 calls)

     General routines
     calbec       :      1.82s CPU      1.85s WALL (    1040 calls)
     fft          :      0.39s CPU      0.40s WALL (     737 calls)
     ffts         :      0.02s CPU      0.02s WALL (     111 calls)
     fftw         :     10.63s CPU     10.78s WALL (  101182 calls)
     interpolate  :      0.05s CPU      0.05s WALL (      56 calls)
 
     Parallel routines
 
     PWSCF        :     52.61s CPU     56.34s WALL

 
   This run was terminated on:  23:27:29   4Jun2024            

=------------------------------------------------------------------------------=
   JOB DONE.
=------------------------------------------------------------------------------=
