
     Program PWSCF v.7.2 starts on  4Jun2024 at 23:25:56 

     This program is part of the open-source Quantum ESPRESSO suite
     for quantum simulation of materials; please cite
         "P. Giannozzi et al., J. Phys.:Condens. Matter 21 395502 (2009);
         "P. Giannozzi et al., J. Phys.:Condens. Matter 29 465901 (2017);
         "P. Giannozzi et al., J. Chem. Phys. 152 154105 (2020);
          URL http://www.quantum-espresso.org", 
     in publications or presentations arising from this work. More details at
     http://www.quantum-espresso.org/quote

     Parallel version (MPI), running on    32 processors

     MPI processes distributed on     1 nodes
     181014 MiB available memory on the printing compute node when the environment starts
 
     Reading input from scf_efield_n.in
Warning: card &CELL ignored
Warning: card / ignored

     Current dimensions of program PWSCF are:
     Max number of different atomic species (ntypx) = 10
     Max number of k-points (npk) =  40000
     Max angular momentum in pseudopotentials (lmaxx) =  4
 
     R & G space division:  proc/nbgrp/npool/nimage =      32
     Subspace diagonalization in iterative solution of the eigenvalue problem:
     a serial algorithm will be used

 
     Parallelization info
     --------------------
     sticks:   dense  smooth     PW     G-vecs:    dense   smooth      PW
     Min          64      32      8                13804     4878     692
     Max          65      33      9                13839     4905     719
     Sum        2053    1027    283               442007   156319   22723
 
     Using Slab Decomposition
 


     bravais-lattice index     =            0
     lattice parameter (alat)  =       9.6476  a.u.
     unit-cell volume          =    4569.7547 (a.u.)^3
     number of atoms/cell      =           14
     number of atomic types    =            3
     number of electrons       =       238.00
     number of Kohn-Sham states=          143
     kinetic-energy cutoff     =      40.0000  Ry
     charge density cutoff     =     320.0000  Ry
     scf convergence threshold =      1.0E-06
     mixing beta               =       0.1000
     number of iterations used =            8  plain     mixing
     Exchange-correlation= SLA  PW   PBE  PBE
                           (   1   4   3   4   0   0   0)

     celldm(1)=   9.647639  celldm(2)=   0.000000  celldm(3)=   0.000000
     celldm(4)=   0.000000  celldm(5)=   0.000000  celldm(6)=   0.000000

     crystal axes: (cart. coord. in units of alat)
               a(1) = (   1.000000   0.000000   0.000000 )  
               a(2) = (   0.500000   0.866025   0.000000 )  
               a(3) = (   0.000000   0.000000   5.876234 )  

     reciprocal axes: (cart. coord. in units 2 pi/alat)
               b(1) = (  1.000000 -0.577350  0.000000 )  
               b(2) = (  0.000000  1.154701  0.000000 )  
               b(3) = (  0.000000  0.000000  0.170177 )  


     PseudoPot. # 1 for Cu read from file:
     ../../pseudo/cu_pbe_v1.2.uspp.F.UPF
     MD5 check sum: 6e991ff952a84172a2a52a1c1e996048
     Pseudo is Ultrasoft + core correction, Zval = 19.0
     Generated by new atomic code, or converted to UPF format
     Using radial grid of  867 points,  6 beta functions with: 
                l(1) =   0
                l(2) =   0
                l(3) =   1
                l(4) =   1
                l(5) =   2
                l(6) =   2
     Q(r) pseudized with  8 coefficients,  rinner =    1.150   1.150   1.150
                                                       1.150   1.150

     PseudoPot. # 2 for O  read from file:
     ../../pseudo/o_pbe_v1.2.uspp.F.UPF
     MD5 check sum: 734c27235a0248c51dbae37a1fbe46ec
     Pseudo is Ultrasoft + core correction, Zval =  6.0
     Generated by new atomic code, or converted to UPF format
     Using radial grid of  737 points,  5 beta functions with: 
                l(1) =   0
                l(2) =   0
                l(3) =   1
                l(4) =   1
                l(5) =   2
     Q(r) pseudized with  8 coefficients,  rinner =    0.900   0.900   0.900
                                                       0.900   0.900

     PseudoPot. # 3 for C  read from file:
     ../../pseudo/c_pbe_v1.2.uspp.F.UPF
     MD5 check sum: d1aef80898a10debaa0f26306b886e00
     Pseudo is Ultrasoft + core correction, Zval =  4.0
     Generated by new atomic code, or converted to UPF format
     Using radial grid of  721 points,  4 beta functions with: 
                l(1) =   0
                l(2) =   0
                l(3) =   1
                l(4) =   1
     Q(r) pseudized with  8 coefficients,  rinner =    1.100   1.100   1.100


     atomic species   valence    mass     pseudopotential
        Cu            19.00    63.54600     Cu( 1.00)
        O              6.00    15.99900     O ( 1.00)
        C              4.00    12.01100     C ( 1.00)

     No symmetry found



   Cartesian axes

     site n.     atom                  positions (alat units)
         1           Cu  tau(   1) = (   0.1250000   0.0721688  -0.3917489  )
         2           Cu  tau(   2) = (   0.6303651   0.3620439   0.0093767  )
         3           Cu  tau(   3) = (   0.3908697   0.2225165   0.4072039  )
         4           Cu  tau(   4) = (   0.3750000   0.5051815  -0.3917489  )
         5           Cu  tau(   5) = (   0.8810586   0.7929929   0.0121369  )
         6           Cu  tau(   6) = (   0.6406493   0.6600251   0.4293002  )
         7           Cu  tau(   7) = (   0.6250000   0.0721688  -0.3917489  )
         8           Cu  tau(   8) = (   1.1289367   0.3637558   0.0124115  )
         9           Cu  tau(   9) = (   0.8944855   0.2208325   0.4305396  )
        10           Cu  tau(  10) = (   0.8750000   0.5051815  -0.3917489  )
        11           Cu  tau(  11) = (   1.3806944   0.7954917   0.0246836  )
        12           Cu  tau(  12) = (   1.1455917   0.6584810   0.4319321  )
        13           O   tau(  13) = (   0.8819856   0.5082280   0.9272744  )
        14           C   tau(  14) = (   0.8813532   0.5068991   0.6960150  )

     number of k points=     2  Methfessel-Paxton smearing, width (Ry)=  0.0100
                       cart. coord. in units 2pi/alat
        k(    1) = (   0.2500000   0.1443376   0.0000000), wk =   1.0000000
        k(    2) = (   0.2500000  -0.4330127   0.0000000), wk =   1.0000000

     Dense  grid:   442007 G-vectors     FFT dimensions: (  60,  60, 324)

     Smooth grid:   156319 G-vectors     FFT dimensions: (  40,  40, 240)

     Estimated max dynamical RAM per process >      66.24 MB

     Estimated total dynamical RAM >       2.07 GB

     Initial potential from superposition of free atoms

     starting charge     225.9999, renormalised to     238.0000

     negative rho (up, down):  4.013E-03 0.000E+00
 
     Adding external electric field

     Computed dipole along edir(3) : 
        Dipole               -4.1946 Ry au,        -10.6616 Debye
        Dipole field         -0.0115 Ry au, 
 
        E field amplitude [Ha a.u.]: -1.0000E-02
        Potential amp.        0.1723 Ry
        Total length         56.1249 bohr
 
     Starting wfcs are  164 randomized atomic wfcs

     total cpu time spent up to now is        0.9 secs

     Self-consistent Calculation

     iteration #  1     ecut=    40.00 Ry     beta= 0.10
     Davidson diagonalization with overlap
     ethr =  1.00E-02,  avg # of iterations =  9.5

     negative rho (up, down):  1.064E-03 0.000E+00
 
     Adding external electric field

     Computed dipole along edir(3) : 
        Dipole               21.0904 Ry au,         53.6064 Debye
        Dipole field          0.0580 Ry au, 
 
        E field amplitude [Ha a.u.]: -1.0000E-02
        Potential amp.       -7.6326 Ry
        Total length         56.1249 bohr
 

     total cpu time spent up to now is        2.2 secs

     total energy              =   -4774.46103119 Ry
     estimated scf accuracy    <     704.58781781 Ry

     iteration #  2     ecut=    40.00 Ry     beta= 0.10
     Davidson diagonalization with overlap
     ethr =  1.00E-02,  avg # of iterations = 14.5
 
     Adding external electric field

     Computed dipole along edir(3) : 
        Dipole                0.9585 Ry au,          2.4362 Debye
        Dipole field          0.0026 Ry au, 
 
        E field amplitude [Ha a.u.]: -1.0000E-02
        Potential amp.       -1.4184 Ry
        Total length         56.1249 bohr
 

     total cpu time spent up to now is        4.2 secs

     total energy              =   -4764.66658555 Ry
     estimated scf accuracy    <   12344.31771155 Ry

     iteration #  3     ecut=    40.00 Ry     beta= 0.10
     Davidson diagonalization with overlap
     ethr =  1.00E-02,  avg # of iterations =  7.0
 
     Adding external electric field

     Computed dipole along edir(3) : 
        Dipole                1.6742 Ry au,          4.2554 Debye
        Dipole field          0.0046 Ry au, 
 
        E field amplitude [Ha a.u.]: -1.0000E-02
        Potential amp.       -1.6393 Ry
        Total length         56.1249 bohr
 

     total cpu time spent up to now is        5.4 secs

     total energy              =   -4861.78067667 Ry
     estimated scf accuracy    <    1637.51960870 Ry

     iteration #  4     ecut=    40.00 Ry     beta= 0.10
     Davidson diagonalization with overlap
     ethr =  1.00E-02,  avg # of iterations =  6.5
 
     Adding external electric field

     Computed dipole along edir(3) : 
        Dipole                1.5906 Ry au,          4.0429 Debye
        Dipole field          0.0044 Ry au, 
 
        E field amplitude [Ha a.u.]: -1.0000E-02
        Potential amp.       -1.6135 Ry
        Total length         56.1249 bohr
 

     total cpu time spent up to now is        6.6 secs

     total energy              =   -4889.73698137 Ry
     estimated scf accuracy    <      21.68143665 Ry

     iteration #  5     ecut=    40.00 Ry     beta= 0.10
     Davidson diagonalization with overlap
     ethr =  9.11E-03,  avg # of iterations =  1.0
 
     Adding external electric field

     Computed dipole along edir(3) : 
        Dipole                0.7920 Ry au,          2.0131 Debye
        Dipole field          0.0022 Ry au, 
 
        E field amplitude [Ha a.u.]: -1.0000E-02
        Potential amp.       -1.3670 Ry
        Total length         56.1249 bohr
 

     total cpu time spent up to now is        7.2 secs

     total energy              =   -4889.61679215 Ry
     estimated scf accuracy    <       7.87822977 Ry

     iteration #  6     ecut=    40.00 Ry     beta= 0.10
     Davidson diagonalization with overlap
     ethr =  3.31E-03,  avg # of iterations =  1.0
 
     Adding external electric field

     Computed dipole along edir(3) : 
        Dipole               -0.1637 Ry au,         -0.4162 Debye
        Dipole field         -0.0005 Ry au, 
 
        E field amplitude [Ha a.u.]: -1.0000E-02
        Potential amp.       -1.0720 Ry
        Total length         56.1249 bohr
 

     total cpu time spent up to now is        7.8 secs

     total energy              =   -4889.19945912 Ry
     estimated scf accuracy    <       4.39201655 Ry

     iteration #  7     ecut=    40.00 Ry     beta= 0.10
     Davidson diagonalization with overlap
     ethr =  1.85E-03,  avg # of iterations =  4.5
 
     Adding external electric field

     Computed dipole along edir(3) : 
        Dipole               -0.8049 Ry au,         -2.0459 Debye
        Dipole field         -0.0022 Ry au, 
 
        E field amplitude [Ha a.u.]: -1.0000E-02
        Potential amp.       -0.8740 Ry
        Total length         56.1249 bohr
 

     total cpu time spent up to now is        8.5 secs

     total energy              =   -4889.06066748 Ry
     estimated scf accuracy    <       1.67156524 Ry

     iteration #  8     ecut=    40.00 Ry     beta= 0.10
     Davidson diagonalization with overlap
     ethr =  7.02E-04,  avg # of iterations =  8.5
 
     Adding external electric field

     Computed dipole along edir(3) : 
        Dipole               -1.1788 Ry au,         -2.9961 Debye
        Dipole field         -0.0032 Ry au, 
 
        E field amplitude [Ha a.u.]: -1.0000E-02
        Potential amp.       -0.7586 Ry
        Total length         56.1249 bohr
 

     total cpu time spent up to now is        9.5 secs

     total energy              =   -4889.03045006 Ry
     estimated scf accuracy    <       0.39828629 Ry

     iteration #  9     ecut=    40.00 Ry     beta= 0.10
     Davidson diagonalization with overlap
     ethr =  1.67E-04,  avg # of iterations =  6.5
 
     Adding external electric field

     Computed dipole along edir(3) : 
        Dipole               -1.7780 Ry au,         -4.5191 Debye
        Dipole field         -0.0049 Ry au, 
 
        E field amplitude [Ha a.u.]: -1.0000E-02
        Potential amp.       -0.5737 Ry
        Total length         56.1249 bohr
 

     total cpu time spent up to now is       10.4 secs

     total energy              =   -4888.95978239 Ry
     estimated scf accuracy    <       0.28310588 Ry

     iteration # 10     ecut=    40.00 Ry     beta= 0.10
     Davidson diagonalization with overlap
     ethr =  1.19E-04,  avg # of iterations = 15.0

     negative rho (up, down):  1.131E-06 0.000E+00
 
     Adding external electric field

     Computed dipole along edir(3) : 
        Dipole               -2.0869 Ry au,         -5.3044 Debye
        Dipole field         -0.0057 Ry au, 
 
        E field amplitude [Ha a.u.]: -1.0000E-02
        Potential amp.       -0.4783 Ry
        Total length         56.1249 bohr
 

     total cpu time spent up to now is       11.6 secs

     total energy              =   -4888.92753003 Ry
     estimated scf accuracy    <       0.22035666 Ry

     iteration # 11     ecut=    40.00 Ry     beta= 0.10
     Davidson diagonalization with overlap
     ethr =  9.26E-05,  avg # of iterations = 10.0

     negative rho (up, down):  6.582E-05 0.000E+00
 
     Adding external electric field

     Computed dipole along edir(3) : 
        Dipole               -2.2451 Ry au,         -5.7066 Debye
        Dipole field         -0.0062 Ry au, 
 
        E field amplitude [Ha a.u.]: -1.0000E-02
        Potential amp.       -0.4295 Ry
        Total length         56.1249 bohr
 

     total cpu time spent up to now is       12.6 secs

     total energy              =   -4888.91466256 Ry
     estimated scf accuracy    <       0.07082481 Ry

     iteration # 12     ecut=    40.00 Ry     beta= 0.10
     Davidson diagonalization with overlap
     ethr =  2.98E-05,  avg # of iterations = 14.0

     negative rho (up, down):  3.741E-05 0.000E+00
 
     Adding external electric field

     Computed dipole along edir(3) : 
        Dipole               -1.6561 Ry au,         -4.2093 Debye
        Dipole field         -0.0046 Ry au, 
 
        E field amplitude [Ha a.u.]: -1.0000E-02
        Potential amp.       -0.6113 Ry
        Total length         56.1249 bohr
 

     total cpu time spent up to now is       13.9 secs

     total energy              =   -4888.90631529 Ry
     estimated scf accuracy    <       0.03173003 Ry

     iteration # 13     ecut=    40.00 Ry     beta= 0.10
     Davidson diagonalization with overlap
     ethr =  1.33E-05,  avg # of iterations = 14.5

     negative rho (up, down):  2.202E-04 0.000E+00
 
     Adding external electric field

     Computed dipole along edir(3) : 
        Dipole               -1.6938 Ry au,         -4.3053 Debye
        Dipole field         -0.0047 Ry au, 
 
        E field amplitude [Ha a.u.]: -1.0000E-02
        Potential amp.       -0.5997 Ry
        Total length         56.1249 bohr
 

     total cpu time spent up to now is       15.3 secs

     total energy              =   -4888.90506078 Ry
     estimated scf accuracy    <       0.05336872 Ry

     iteration # 14     ecut=    40.00 Ry     beta= 0.10
     Davidson diagonalization with overlap
     ethr =  1.33E-05,  avg # of iterations = 12.0

     negative rho (up, down):  2.986E-03 0.000E+00
 
     Adding external electric field

     Computed dipole along edir(3) : 
        Dipole               -1.5089 Ry au,         -3.8352 Debye
        Dipole field         -0.0041 Ry au, 
 
        E field amplitude [Ha a.u.]: -1.0000E-02
        Potential amp.       -0.6567 Ry
        Total length         56.1249 bohr
 

     total cpu time spent up to now is       16.4 secs

     total energy              =   -4888.90710708 Ry
     estimated scf accuracy    <       0.00515193 Ry

     iteration # 15     ecut=    40.00 Ry     beta= 0.10
     Davidson diagonalization with overlap
     ethr =  2.16E-06,  avg # of iterations = 12.5

     negative rho (up, down):  3.765E-03 0.000E+00
 
     Adding external electric field

     Computed dipole along edir(3) : 
        Dipole               -1.3438 Ry au,         -3.4156 Debye
        Dipole field         -0.0037 Ry au, 
 
        E field amplitude [Ha a.u.]: -1.0000E-02
        Potential amp.       -0.7077 Ry
        Total length         56.1249 bohr
 

     total cpu time spent up to now is       17.7 secs

     total energy              =   -4888.90659744 Ry
     estimated scf accuracy    <       0.00293225 Ry

     iteration # 16     ecut=    40.00 Ry     beta= 0.10
     Davidson diagonalization with overlap
     ethr =  1.23E-06,  avg # of iterations = 12.0

     negative rho (up, down):  2.897E-03 0.000E+00
 
     Adding external electric field

     Computed dipole along edir(3) : 
        Dipole               -1.2400 Ry au,         -3.1517 Debye
        Dipole field         -0.0034 Ry au, 
 
        E field amplitude [Ha a.u.]: -1.0000E-02
        Potential amp.       -0.7398 Ry
        Total length         56.1249 bohr
 

     total cpu time spent up to now is       18.8 secs

     total energy              =   -4888.90663949 Ry
     estimated scf accuracy    <       0.00092041 Ry

     iteration # 17     ecut=    40.00 Ry     beta= 0.10
     Davidson diagonalization with overlap
     ethr =  3.87E-07,  avg # of iterations =  3.0

     negative rho (up, down):  2.464E-03 0.000E+00
 
     Adding external electric field

     Computed dipole along edir(3) : 
        Dipole               -1.2249 Ry au,         -3.1134 Debye
        Dipole field         -0.0034 Ry au, 
 
        E field amplitude [Ha a.u.]: -1.0000E-02
        Potential amp.       -0.7444 Ry
        Total length         56.1249 bohr
 

     total cpu time spent up to now is       19.5 secs

     total energy              =   -4888.90671901 Ry
     estimated scf accuracy    <       0.00015548 Ry

     iteration # 18     ecut=    40.00 Ry     beta= 0.10
     Davidson diagonalization with overlap
     ethr =  6.53E-08,  avg # of iterations =  2.5

     negative rho (up, down):  2.006E-03 0.000E+00
 
     Adding external electric field

     Computed dipole along edir(3) : 
        Dipole               -1.1975 Ry au,         -3.0436 Debye
        Dipole field         -0.0033 Ry au, 
 
        E field amplitude [Ha a.u.]: -1.0000E-02
        Potential amp.       -0.7529 Ry
        Total length         56.1249 bohr
 

     total cpu time spent up to now is       20.3 secs

     total energy              =   -4888.90672619 Ry
     estimated scf accuracy    <       0.00010822 Ry

     iteration # 19     ecut=    40.00 Ry     beta= 0.10
     Davidson diagonalization with overlap
     ethr =  4.55E-08,  avg # of iterations =  5.5

     negative rho (up, down):  2.044E-03 0.000E+00
 
     Adding external electric field

     Computed dipole along edir(3) : 
        Dipole               -1.1837 Ry au,         -3.0086 Debye
        Dipole field         -0.0033 Ry au, 
 
        E field amplitude [Ha a.u.]: -1.0000E-02
        Potential amp.       -0.7571 Ry
        Total length         56.1249 bohr
 

     total cpu time spent up to now is       21.1 secs

     total energy              =   -4888.90673998 Ry
     estimated scf accuracy    <       0.00002908 Ry

     iteration # 20     ecut=    40.00 Ry     beta= 0.10
     Davidson diagonalization with overlap
     ethr =  1.22E-08,  avg # of iterations =  2.0

     negative rho (up, down):  2.139E-03 0.000E+00
 
     Adding external electric field

     Computed dipole along edir(3) : 
        Dipole               -1.1794 Ry au,         -2.9977 Debye
        Dipole field         -0.0032 Ry au, 
 
        E field amplitude [Ha a.u.]: -1.0000E-02
        Potential amp.       -0.7584 Ry
        Total length         56.1249 bohr
 

     total cpu time spent up to now is       21.7 secs

     total energy              =   -4888.90674678 Ry
     estimated scf accuracy    <       0.00001229 Ry

     iteration # 21     ecut=    40.00 Ry     beta= 0.10
     Davidson diagonalization with overlap
     ethr =  5.16E-09,  avg # of iterations =  2.0

     negative rho (up, down):  2.073E-03 0.000E+00
 
     Adding external electric field

     Computed dipole along edir(3) : 
        Dipole               -1.1760 Ry au,         -2.9892 Debye
        Dipole field         -0.0032 Ry au, 
 
        E field amplitude [Ha a.u.]: -1.0000E-02
        Potential amp.       -0.7595 Ry
        Total length         56.1249 bohr
 

     total cpu time spent up to now is       22.4 secs

     total energy              =   -4888.90675105 Ry
     estimated scf accuracy    <       0.00000469 Ry

     iteration # 22     ecut=    40.00 Ry     beta= 0.10
     Davidson diagonalization with overlap
     ethr =  1.97E-09,  avg # of iterations =  1.5

     negative rho (up, down):  1.968E-03 0.000E+00
 
     Adding external electric field

     Computed dipole along edir(3) : 
        Dipole               -1.1723 Ry au,         -2.9796 Debye
        Dipole field         -0.0032 Ry au, 
 
        E field amplitude [Ha a.u.]: -1.0000E-02
        Potential amp.       -0.7607 Ry
        Total length         56.1249 bohr
 

     total cpu time spent up to now is       23.0 secs

     total energy              =   -4888.90675381 Ry
     estimated scf accuracy    <       0.00000228 Ry

     iteration # 23     ecut=    40.00 Ry     beta= 0.10
     Davidson diagonalization with overlap
     ethr =  9.58E-10,  avg # of iterations =  1.0

     negative rho (up, down):  1.957E-03 0.000E+00
 
     Adding external electric field

     Computed dipole along edir(3) : 
        Dipole               -1.1702 Ry au,         -2.9743 Debye
        Dipole field         -0.0032 Ry au, 
 
        E field amplitude [Ha a.u.]: -1.0000E-02
        Potential amp.       -0.7613 Ry
        Total length         56.1249 bohr
 

     total cpu time spent up to now is       23.6 secs

     End of self-consistent calculation

          k = 0.2500 0.1443 0.0000 ( 19495 PWs)   bands (ev):

  -113.1860-113.1799-113.1393-113.0158-112.9308-112.7881-112.7830-112.7536
  -112.7023-112.6485-112.6437-112.5536 -70.7337 -70.7054 -70.6563 -70.5405
   -70.5330 -70.4807 -70.4658 -70.4590 -70.4501 -70.4396 -70.4179 -70.3611
   -70.3414 -70.3220 -70.3034 -70.2187 -70.2115 -70.2027 -70.1907 -70.1682
   -70.1640 -70.1527 -70.1522 -70.1378 -70.1139 -70.1133 -70.0960 -70.0682
   -70.0381 -70.0301 -70.0285 -69.9971 -69.9927 -69.9859 -69.9316 -69.9284
   -23.7942 -10.9282  -8.6054  -7.8171  -7.3254  -7.2617  -6.2201  -5.6471
    -5.1662  -5.0492  -5.0434  -4.9353  -4.8277  -4.7849  -4.5441  -4.4757
    -4.4581  -4.3534  -4.3449  -4.2886  -3.9363  -3.9175  -3.8397  -3.7464
    -3.6291  -3.5401  -3.5135  -3.4712  -3.4683  -3.4424  -3.3930  -3.2958
    -3.2727  -3.2183  -3.1726  -3.1633  -3.1281  -3.1008  -3.0798  -2.9616
    -2.9026  -2.8778  -2.8084  -2.7713  -2.7127  -2.6649  -2.6127  -2.5639
    -2.5574  -2.5432  -2.4307  -2.3903  -2.3803  -2.2945  -2.2222  -2.1928
    -2.1811  -2.1621  -2.1131  -2.0761  -2.0633  -2.0276  -1.9917  -1.9661
    -1.9492  -1.8986  -1.8602  -1.8464  -1.3650  -0.7206  -0.5572  -0.1687
     0.1887   0.4099   0.8687   1.5581   1.6644   2.0577   2.4037   3.0329
     3.2966   3.6884   4.3040   4.6587   4.7885   5.1421   5.4604   5.5116
     5.8805   5.9585   6.0482   6.5984   6.9799   7.1028   7.4356

          k = 0.2500-0.4330 0.0000 ( 19534 PWs)   bands (ev):

  -113.1848-113.1811-113.1393-113.0158-112.9308-112.7864-112.7847-112.7535
  -112.7024-112.6469-112.6454-112.5536 -70.7219 -70.7163 -70.6558 -70.5382
   -70.5348 -70.4704 -70.4665 -70.4568 -70.4532 -70.4484 -70.4091 -70.3606
   -70.3415 -70.3318 -70.3031 -70.2091 -70.2058 -70.1884 -70.1805 -70.1771
   -70.1688 -70.1647 -70.1535 -70.1496 -70.1133 -70.1052 -70.0884 -70.0816
   -70.0389 -70.0345 -70.0278 -69.9955 -69.9943 -69.9859 -69.9331 -69.9284
   -23.7935 -10.8344  -8.0279  -7.5664  -7.3066  -7.2532  -6.0833  -6.0523
    -5.6216  -4.9659  -4.8854  -4.6531  -4.5418  -4.4473  -4.3552  -4.3378
    -4.2543  -4.1603  -4.0903  -4.0608  -3.9521  -3.9100  -3.8905  -3.8087
    -3.7975  -3.7568  -3.6750  -3.6181  -3.5804  -3.5457  -3.4266  -3.4048
    -3.3817  -3.3364  -3.3271  -3.2719  -3.2345  -3.1976  -3.1584  -3.1170
    -3.0501  -2.9936  -2.9847  -2.9682  -2.8562  -2.8213  -2.7756  -2.7423
    -2.7133  -2.6380  -2.6231  -2.5577  -2.5088  -2.4242  -2.4192  -2.3587
    -2.3109  -2.2933  -2.2371  -2.1721  -2.1023  -2.0687  -2.0582  -2.0320
    -2.0112  -1.9758  -1.8867  -1.8237  -1.6808  -1.4490  -0.9842  -0.0137
     0.4209   1.0545   1.8666   2.0327   2.5275   2.6268   2.6756   3.1337
     3.8032   4.2523   4.5489   4.5501   4.7357   5.0734   5.2375   5.8023
     6.0963   6.1224   6.1637   6.1975   6.8415   6.8643   7.0361

     the Fermi energy is    -0.3633 ev

!    total energy              =   -4888.90677041 Ry
     estimated scf accuracy    <       0.00000097 Ry
     smearing contrib. (-TS)   =       0.00117206 Ry
     internal energy E=F+TS    =   -4888.90794248 Ry

     The total energy is F=E-TS. E is the sum of the following terms:
     one-electron contribution =  -54525.26064268 Ry
     hartree contribution      =   27266.02682927 Ry
     xc contribution           =    -476.17340774 Ry
     ewald contribution        =   22846.51891662 Ry
     electric field correction =      -0.01963795 Ry

     convergence has been achieved in  23 iterations

     negative rho (up, down):  1.957E-03 0.000E+00

     Forces acting on atoms (cartesian axes, Ry/au):

     atom    1 type  1   force =    -0.00137145   -0.00103037   -0.00089496
     atom    2 type  1   force =     0.00063053    0.00054783   -0.00105165
     atom    3 type  1   force =     0.00024156    0.00051700    0.00029158
     atom    4 type  1   force =    -0.00080213    0.00046004    0.00111794
     atom    5 type  1   force =     0.00058357   -0.00076114   -0.00078027
     atom    6 type  1   force =     0.00107267   -0.00023804    0.00014686
     atom    7 type  1   force =     0.00020286   -0.00116433    0.00083064
     atom    8 type  1   force =    -0.00054338    0.00121942   -0.00070868
     atom    9 type  1   force =     0.00024109    0.00110084   -0.00036131
     atom   10 type  1   force =     0.00003191   -0.00044425    0.00286462
     atom   11 type  1   force =    -0.00037783   -0.00025051   -0.00094422
     atom   12 type  1   force =    -0.00178820   -0.00088864    0.00012316
     atom   13 type  2   force =     0.00057333    0.00024724    0.01611437
     atom   14 type  3   force =     0.00130547    0.00068492   -0.01674806
     The non-local contrib.  to forces
     atom    1 type  1   force =    -0.01748433   -0.01101818   -0.25690948
     atom    2 type  1   force =    -0.02299242   -0.01354386    0.00283228
     atom    3 type  1   force =     0.09060514    0.05196057    0.29197869
     atom    4 type  1   force =    -0.00839989    0.02704144   -0.28683371
     atom    5 type  1   force =    -0.05544711    0.05789146   -0.03834679
     atom    6 type  1   force =     0.13993653   -0.17297673    0.20757879
     atom    7 type  1   force =     0.01783265   -0.02070161   -0.28704171
     atom    8 type  1   force =     0.02184942   -0.07633934   -0.03712034
     atom    9 type  1   force =    -0.07977858    0.20660415    0.20796504
     atom   10 type  1   force =    -0.00929363   -0.00478606   -0.31918423
     atom   11 type  1   force =     0.03415831    0.01950566   -0.08148925
     atom   12 type  1   force =    -0.18068574   -0.10465148    0.21611544
     atom   13 type  2   force =    -0.00538050   -0.01282475   -2.23079117
     atom   14 type  3   force =     0.02140957    0.01511995    0.49132429
     The ionic contribution  to forces
     atom    1 type  1   force =    -0.64323978   -0.38395821 -371.49090868
     atom    2 type  1   force =     0.71663353    0.41853411  -24.44118466
     atom    3 type  1   force =     1.03071496    0.66023688  322.13901659
     atom    4 type  1   force =    -0.07104273    0.95118992 -371.80001731
     atom    5 type  1   force =    -0.06844534   -0.37995306  -22.99674277
     atom    6 type  1   force =    -4.06914940    1.03349791  330.99129080
     atom    7 type  1   force =     0.80686406   -0.56524434 -371.85339638
     atom    8 type  1   force =    -0.39310111    0.13456917  -22.72781986
     atom    9 type  1   force =    -1.11269641   -4.08249739  331.83110135
     atom   10 type  1   force =     0.18511374    0.06941140 -372.73217601
     atom   11 type  1   force =     0.09091135    0.08219159  -14.39620654
     atom   12 type  1   force =     3.53771597    2.01821860  333.84649315
     atom   13 type  2   force =    -0.01703660    0.04167376  157.62131553
     atom   14 type  3   force =     0.00675776    0.00212965   96.00923477
     The local contribution  to forces
     atom    1 type  1   force =     0.65935411    0.39393037  372.00432380
     atom    2 type  1   force =    -0.69333293   -0.40464286   24.69670972
     atom    3 type  1   force =    -1.12113264   -0.71169811 -322.17236836
     atom    4 type  1   force =     0.07863564   -0.97772909  372.34500531
     atom    5 type  1   force =     0.12414680    0.32198253   23.29357878
     atom    6 type  1   force =     3.92968415   -0.86066842 -330.93961136
     atom    7 type  1   force =    -0.82447524    0.58475083  372.39828490
     atom    8 type  1   force =     0.37112680   -0.05764303   23.02347829
     atom    9 type  1   force =     1.19249326    3.87642205 -331.78030254
     atom   10 type  1   force =    -0.17574403   -0.06502712  373.31103224
     atom   11 type  1   force =    -0.12503052   -0.10169970   14.73586806
     atom   12 type  1   force =    -3.35824691   -1.91413373 -333.80352541
     atom   13 type  2   force =     0.02295623   -0.02865009 -155.29986279
     atom   14 type  3   force =    -0.02664108   -0.01644308  -96.46672024
     The core correction contribution to forces
     atom    1 type  1   force =     0.00000665    0.00000315    0.00022201
     atom    2 type  1   force =    -0.00002781   -0.00001742   -0.00005092
     atom    3 type  1   force =    -0.00005176   -0.00002897   -0.00029124
     atom    4 type  1   force =    -0.00001425   -0.00003345    0.00032531
     atom    5 type  1   force =     0.00004944   -0.00005356    0.00002528
     atom    6 type  1   force =     0.00009033    0.00008293   -0.00037406
     atom    7 type  1   force =    -0.00003480    0.00000684    0.00032433
     atom    8 type  1   force =    -0.00002277    0.00007142    0.00002380
     atom    9 type  1   force =     0.00011611    0.00003821   -0.00037638
     atom   10 type  1   force =    -0.00002160   -0.00001654    0.00044531
     atom   11 type  1   force =    -0.00004936   -0.00003009    0.00008431
     atom   12 type  1   force =     0.00003161    0.00001877   -0.00039899
     atom   13 type  2   force =     0.00001478    0.00003747    0.00608158
     atom   14 type  3   force =    -0.00024183   -0.00013120    0.00363336
     The Hubbard contrib.    to forces
     atom    1 type  1   force =     0.00000000    0.00000000    0.00000000
     atom    2 type  1   force =     0.00000000    0.00000000    0.00000000
     atom    3 type  1   force =     0.00000000    0.00000000    0.00000000
     atom    4 type  1   force =     0.00000000    0.00000000    0.00000000
     atom    5 type  1   force =     0.00000000    0.00000000    0.00000000
     atom    6 type  1   force =     0.00000000    0.00000000    0.00000000
     atom    7 type  1   force =     0.00000000    0.00000000    0.00000000
     atom    8 type  1   force =     0.00000000    0.00000000    0.00000000
     atom    9 type  1   force =     0.00000000    0.00000000    0.00000000
     atom   10 type  1   force =     0.00000000    0.00000000    0.00000000
     atom   11 type  1   force =     0.00000000    0.00000000    0.00000000
     atom   12 type  1   force =     0.00000000    0.00000000    0.00000000
     atom   13 type  2   force =     0.00000000    0.00000000    0.00000000
     atom   14 type  3   force =     0.00000000    0.00000000    0.00000000
     The SCF correction term to forces
     atom    1 type  1   force =     0.00000000    0.00000000    0.00000000
     atom    2 type  1   force =     0.00035484    0.00022149   -0.00209324
     atom    3 type  1   force =     0.00011054    0.00005026   -0.00077927
     atom    4 type  1   force =     0.00000000    0.00000000    0.00000000
     atom    5 type  1   force =     0.00028446   -0.00062488   -0.00202993
     atom    6 type  1   force =     0.00051572   -0.00017010   -0.00147248
     atom    7 type  1   force =     0.00000000    0.00000000    0.00000000
     atom    8 type  1   force =    -0.00039104    0.00056482   -0.00200574
     atom    9 type  1   force =     0.00011139    0.00053745   -0.00148395
     atom   10 type  1   force =     0.00000000    0.00000000    0.00000000
     atom   11 type  1   force =    -0.00036293   -0.00021434   -0.00193597
     atom   12 type  1   force =    -0.00059845   -0.00033717   -0.00129620
     atom   13 type  2   force =     0.00002411    0.00001448    0.00030007
     atom   14 type  3   force =     0.00002574    0.00001324   -0.00042002

     Total force =     0.023590     Total SCF correction =     0.005057
     SCF correction compared to forces is large: reduce conv_thr to get better values

     Writing all to output data dir ./output/opt.save/
 
     init_run     :      0.56s CPU      0.66s WALL (       1 calls)
     electrons    :     21.31s CPU     22.79s WALL (       1 calls)
     forces       :      0.29s CPU      0.32s WALL (       1 calls)

     Called by init_run:
     wfcinit      :      0.17s CPU      0.19s WALL (       1 calls)
     potinit      :      0.09s CPU      0.10s WALL (       1 calls)
     hinit0       :      0.17s CPU      0.19s WALL (       1 calls)

     Called by electrons:
     c_bands      :     16.94s CPU     17.10s WALL (      23 calls)
     sum_band     :      2.62s CPU      3.31s WALL (      23 calls)
     v_of_rho     :      0.40s CPU      0.41s WALL (      24 calls)
     newd         :      1.25s CPU      1.88s WALL (      24 calls)
     mix_rho      :      0.11s CPU      0.11s WALL (      23 calls)

     Called by c_bands:
     init_us_2    :      0.08s CPU      0.08s WALL (      96 calls)
     init_us_2:cp :      0.08s CPU      0.08s WALL (      96 calls)
     cegterg      :     15.86s CPU     15.98s WALL (      46 calls)

     Called by *egterg:
     cdiaghg      :      7.24s CPU      7.26s WALL (     379 calls)
     h_psi        :      5.58s CPU      5.66s WALL (     381 calls)
     s_psi        :      0.48s CPU      0.48s WALL (     381 calls)
     g_psi        :      0.02s CPU      0.02s WALL (     333 calls)

     Called by h_psi:
     h_psi:calbec :      0.57s CPU      0.60s WALL (     381 calls)
     vloc_psi     :      4.43s CPU      4.48s WALL (     381 calls)
     add_vuspsi   :      0.52s CPU      0.53s WALL (     381 calls)

     General routines
     calbec       :      0.78s CPU      0.81s WALL (     435 calls)
     fft          :      0.23s CPU      0.25s WALL (     321 calls)
     ffts         :      0.01s CPU      0.01s WALL (      47 calls)
     fftw         :      4.40s CPU      4.45s WALL (   42006 calls)
     interpolate  :      0.02s CPU      0.02s WALL (      24 calls)
 
     Parallel routines
 
     PWSCF        :     22.39s CPU     24.24s WALL

 
   This run was terminated on:  23:26:21   4Jun2024            

=------------------------------------------------------------------------------=
   JOB DONE.
=------------------------------------------------------------------------------=
