
     Program PWSCF v.7.3.1 starts on 29May2024 at 11:42: 9 

     This program is part of the open-source Quantum ESPRESSO suite
     for quantum simulation of materials; please cite
         "P. Giannozzi et al., J. Phys.:Condens. Matter 21 395502 (2009);
         "P. Giannozzi et al., J. Phys.:Condens. Matter 29 465901 (2017);
         "P. Giannozzi et al., J. Chem. Phys. 152 154105 (2020);
          URL http://www.quantum-espresso.org", 
     in publications or presentations arising from this work. More details at
     http://www.quantum-espresso.org/quote

     Parallel version (MPI), running on    64 processors

     MPI processes distributed on     1 nodes
     201741 MiB available memory on the printing compute node when the environment starts
 
     Reading input from scf.in

     Current dimensions of program PWSCF are:
     Max number of different atomic species (ntypx) = 10
     Max number of k-points (npk) =  40000
     Max angular momentum in pseudopotentials (lmaxx) =  4
     Message from routine iosys_1drism:
     default density from MOL file(H2O.tip5p.Nishihara.MOL) is used

     gamma-point specific algorithms are used
     Message from routine setup:
     using ibrav=0 with symmetry is DISCOURAGED, use correct ibrav instead
 
     R & G space division:  proc/nbgrp/npool/nimage =      64
     Subspace diagonalization in iterative solution of the eigenvalue problem:
     a serial algorithm will be used


     Molecule # 1 for H2O read from file:
     ../pseudo/H2O.tip5p.Nishihara.MOL
     Density:
         0.26741625E+03 cell^-1
         0.49533751E-02 bohr^-3
         0.55506881E+02 mol/L
         0.99997200E+00 g/cm^3
     Permittivity:
        78.500000
     Number of atoms:   5
     Atoms:
       #  atom      X (angs)      Y (angs)      Z (angs)      Q (e)         E (kcal/mol)  S (angs)
       1  O/h2o     0.00000000   -0.06556000    0.00000000    0.00000000    0.16000000    3.12000000
       2  H/h2o     0.75695000    0.52032000    0.00000000    0.24100000    0.04600000    1.00000000
       3  H/h2o    -0.75695000    0.52032000    0.00000000    0.24100000    0.04600000    1.00000000
       4  L/h2o     0.00000000   -0.46971000    0.57154000   -0.24100000    0.04600000    1.80000000
       5  L/h2o     0.00000000   -0.46971000   -0.57154000   -0.24100000    0.04600000    1.80000000


     Molecule # 2 for K+ read from file:
     ../pseudo/K+.Hagiwara.MOL
     Density:
         0.48177136E+01 cell^-1
         0.89238937E-04 bohr^-3
         0.10000000E+01 mol/L
         0.39098300E-01 g/cm^3
     Number of atoms:   1
     Atoms:
       #  atom      X (angs)      Y (angs)      Z (angs)      Q (e)         E (kcal/mol)  S (angs)
       1  K         0.00000000    0.00000000    0.00000000    1.00000000    0.00032800    4.93462800


     Molecule # 3 for OH- read from file:
     ../pseudo/OH-.oplsaa.MOL
     Density:
         0.48177136E+01 cell^-1
         0.89238937E-04 bohr^-3
         0.10000000E+01 mol/L
         0.17007340E-01 g/cm^3
     Number of atoms:   2
     Atoms:
       #  atom      X (angs)      Y (angs)      Z (angs)      Q (e)         E (kcal/mol)  S (angs)
       1  O/oh      0.00000000    0.00000000    0.00000000   -1.30000000    0.25000000    3.20000000
       2  H/oh      0.95300000    0.00000000    0.00000000    0.30000000    0.04600000    1.00000000


     1D-RISM info
     ------------
     closure equation        =           KH
     temperature             =     300.0000  kelvin
     coulomb smearing radius =       2.0000  bohr
     number of solvent sites =            8
     number of grids         =         5973
     maximum of R-space      =     999.8326  bohr
     maximum of G-space      =      18.7632  bohr^-1
     number of iterations    =        50000
     convergence threshold   =      1.0E-08
     Gaussian width of bonds =       0.3162  bohr
     size of MDIIS           =           20
     step of MDIIS           =       0.1000
     number of processes     =           64


     1D-RISM Calculation

     iter. #     1  RMS(g-h-1)= 7.798E-04  nbox=  0  T= 2400.00K
     iter. #   101  RMS(g-h-1)= 1.113E-05  nbox= 13  T= 1600.00K
     iter. #   201  RMS(g-h-1)= 1.465E-06  nbox= 20  T= 1066.67K
     iter. #   301  RMS(g-h-1)= 1.298E-06  nbox= 20  T=  711.11K
     iter. #   401  RMS(g-h-1)= 1.520E-06  nbox= 20  T=  474.07K
     iter. #   501  RMS(g-h-1)= 3.875E-06  nbox= 20  T=  316.05K
     iter. #   601  RMS(g-h-1)= 1.027E-06  nbox= 20  T=  300.00K
     iter. #   701  RMS(g-h-1)= 3.314E-07  nbox= 20  T=  300.00K
     iter. #   801  RMS(g-h-1)= 1.614E-07  nbox= 20  T=  300.00K
     iter. #   901  RMS(g-h-1)= 1.210E-07  nbox= 20  T=  300.00K
     iter. #  1001  RMS(g-h-1)= 9.787E-08  nbox= 20  T=  300.00K
     iter. #  1101  RMS(g-h-1)= 8.594E-08  nbox= 20  T=  300.00K
     iter. #  1201  RMS(g-h-1)= 7.259E-08  nbox= 20  T=  300.00K
     iter. #  1301  RMS(g-h-1)= 6.702E-08  nbox= 20  T=  300.00K
     iter. #  1401  RMS(g-h-1)= 6.340E-08  nbox= 20  T=  300.00K
     iter. #  1501  RMS(g-h-1)= 5.791E-08  nbox= 20  T=  300.00K
     iter. #  1601  RMS(g-h-1)= 5.262E-08  nbox= 20  T=  300.00K
     iter. #  1701  RMS(g-h-1)= 4.900E-08  nbox= 20  T=  300.00K
     iter. #  1801  RMS(g-h-1)= 4.578E-08  nbox= 20  T=  300.00K
     iter. #  1901  RMS(g-h-1)= 4.210E-08  nbox= 20  T=  300.00K
     iter. #  2001  RMS(g-h-1)= 3.911E-08  nbox= 20  T=  300.00K
     iter. #  2101  RMS(g-h-1)= 3.568E-08  nbox= 20  T=  300.00K
     iter. #  2201  RMS(g-h-1)= 3.334E-08  nbox= 20  T=  300.00K
     iter. #  2301  RMS(g-h-1)= 3.194E-08  nbox= 20  T=  300.00K
     iter. #  2401  RMS(g-h-1)= 3.118E-08  nbox= 20  T=  300.00K
     iter. #  2501  RMS(g-h-1)= 3.049E-08  nbox= 20  T=  300.00K
     iter. #  2601  RMS(g-h-1)= 3.043E-08  nbox= 20  T=  300.00K
     iter. #  2701  RMS(g-h-1)= 3.476E-08  nbox= 20  T=  300.00K
     iter. #  2801  RMS(g-h-1)= 2.970E-08  nbox= 20  T=  300.00K
     iter. #  2901  RMS(g-h-1)= 2.879E-08  nbox= 20  T=  300.00K
     iter. #  3001  RMS(g-h-1)= 2.810E-08  nbox= 20  T=  300.00K
     iter. #  3101  RMS(g-h-1)= 2.727E-08  nbox= 20  T=  300.00K
     iter. #  3201  RMS(g-h-1)= 2.628E-08  nbox= 20  T=  300.00K
     iter. #  3301  RMS(g-h-1)= 2.571E-08  nbox= 20  T=  300.00K
     iter. #  3401  RMS(g-h-1)= 2.422E-08  nbox= 20  T=  300.00K
     iter. #  3501  RMS(g-h-1)= 2.315E-08  nbox= 20  T=  300.00K
     iter. #  3601  RMS(g-h-1)= 2.168E-08  nbox= 20  T=  300.00K
     iter. #  3701  RMS(g-h-1)= 2.024E-08  nbox= 20  T=  300.00K
     iter. #  3801  RMS(g-h-1)= 1.935E-08  nbox= 20  T=  300.00K
     iter. #  3901  RMS(g-h-1)= 1.867E-08  nbox= 20  T=  300.00K
     iter. #  4001  RMS(g-h-1)= 1.798E-08  nbox= 20  T=  300.00K
     iter. #  4101  RMS(g-h-1)= 1.706E-08  nbox= 20  T=  300.00K
     iter. #  4201  RMS(g-h-1)= 1.678E-08  nbox= 20  T=  300.00K
     iter. #  4301  RMS(g-h-1)= 1.639E-08  nbox= 20  T=  300.00K
     iter. #  4401  RMS(g-h-1)= 1.608E-08  nbox= 20  T=  300.00K
     iter. #  4501  RMS(g-h-1)= 1.581E-08  nbox= 20  T=  300.00K
     iter. #  4601  RMS(g-h-1)= 1.559E-08  nbox= 20  T=  300.00K
     iter. #  4701  RMS(g-h-1)= 1.505E-08  nbox= 20  T=  300.00K
     iter. #  4801  RMS(g-h-1)= 1.465E-08  nbox= 20  T=  300.00K
     iter. #  4901  RMS(g-h-1)= 1.406E-08  nbox= 20  T=  300.00K
     iter. #  5001  RMS(g-h-1)= 1.340E-08  nbox= 20  T=  300.00K
     iter. #  5101  RMS(g-h-1)= 1.259E-08  nbox= 20  T=  300.00K
     iter. #  5201  RMS(g-h-1)= 1.201E-08  nbox= 20  T=  300.00K
     iter. #  5301  RMS(g-h-1)= 1.149E-08  nbox= 20  T=  300.00K
     iter. #  5401  RMS(g-h-1)= 1.123E-08  nbox= 20  T=  300.00K
     iter. #  5501  RMS(g-h-1)= 1.099E-08  nbox= 20  T=  300.00K
     iter. #  5601  RMS(g-h-1)= 1.080E-08  nbox= 20  T=  300.00K
     iter. #  5701  RMS(g-h-1)= 1.063E-08  nbox= 20  T=  300.00K
     iter. #  5801  RMS(g-h-1)= 1.036E-08  nbox= 20  T=  300.00K
     iter. #  5901  RMS(g-h-1)= 1.006E-08  nbox= 20  T=  300.00K
     iter. #  5916  RMS(g-h-1)= 9.999E-09  nbox= 20  T=  300.00K

     End of 1D-RISM calculation


     convergence has been achieved in  5916 iterations


     Chemical potential of solvation

     H2O        H2O        Closure      0.144037E+01 kcal/mol
                           GaussFluct  -0.702221E+01 kcal/mol

                K+         Closure     -0.280535E+00 kcal/mol
                           GaussFluct  -0.350075E+00 kcal/mol

                OH-        Closure     -0.749887E+00 kcal/mol
                           GaussFluct  -0.841428E+00 kcal/mol

                Total      Closure      0.409948E+00 kcal/mol
                           GaussFluct  -0.821372E+01 kcal/mol

     K+         H2O        Closure     -0.155716E+02 kcal/mol
                           GaussFluct  -0.194316E+02 kcal/mol

                K+         Closure      0.351545E+06 kcal/mol
                           GaussFluct   0.351545E+06 kcal/mol

                OH-        Closure     -0.351595E+06 kcal/mol
                           GaussFluct  -0.351595E+06 kcal/mol

                Total      Closure     -0.662660E+02 kcal/mol
                           GaussFluct  -0.701839E+02 kcal/mol

     OH-        H2O        Closure     -0.416239E+02 kcal/mol
                           GaussFluct  -0.467050E+02 kcal/mol

                K+         Closure     -0.351595E+06 kcal/mol
                           GaussFluct  -0.351595E+06 kcal/mol

                OH-        Closure      0.351544E+06 kcal/mol
                           GaussFluct   0.351544E+06 kcal/mol

                Total      Closure     -0.925523E+02 kcal/mol
                           GaussFluct  -0.977560E+02 kcal/mol

 
     Parallelization info
     --------------------
     sticks:   dense  smooth     PW     G-vecs:    dense   smooth      PW
     Min         567     284     69                81548    28832    3594
     Max         570     286     72                81558    28844    3612
     Sum       36381   18197   4537              5219483  1845573  230389
 
     Using Slab Decomposition
 


     bravais-lattice index     =            0
     lattice parameter (alat)  =      37.7945  a.u.
     unit-cell volume          =   53986.6760 (a.u.)^3
     number of atoms/cell      =            3
     number of atomic types    =            2
     number of electrons       =         8.00
     number of Kohn-Sham states=           20
     kinetic-energy cutoff     =      40.0000  Ry
     charge density cutoff     =     320.0000  Ry
     scf convergence threshold =      1.0E-06
     mixing beta               =       0.1000
     number of iterations used =            8  plain     mixing
     energy convergence thresh.=      1.0E-04
     force convergence thresh. =      1.0E-03
     Exchange-correlation=  SLA  PW   PBX  PBC
                           (   1   4   3   4   0   0   0)
     nstep                     =          100


     Effective Screening Medium Method
     =================================
     Boundary Conditions: Vacuum-Slab-Vacuum
     total charge in unit cell        =   0.0000
     grid points for fit at edges     =        4 
 

     celldm(1)=  37.794522  celldm(2)=   0.000000  celldm(3)=   0.000000
     celldm(4)=   0.000000  celldm(5)=   0.000000  celldm(6)=   0.000000

     crystal axes: (cart. coord. in units of alat)
               a(1) = (   1.000000   0.000000   0.000000 )  
               a(2) = (   0.000000   1.000000   0.000000 )  
               a(3) = (   0.000000   0.000000   1.000000 )  

     reciprocal axes: (cart. coord. in units 2 pi/alat)
               b(1) = (  1.000000  0.000000  0.000000 )  
               b(2) = (  0.000000  1.000000  0.000000 )  
               b(3) = (  0.000000  0.000000  1.000000 )  


     PseudoPot. # 1 for O  read from file:
     ../pseudo/o_pbe_v1.2.uspp.F.UPF
     MD5 check sum: 734c27235a0248c51dbae37a1fbe46ec
     Pseudo is Ultrasoft + core correction, Zval =  6.0
     Generated by new atomic code, or converted to UPF format
     Using radial grid of  737 points,  5 beta functions with: 
                l(1) =   0
                l(2) =   0
                l(3) =   1
                l(4) =   1
                l(5) =   2
     Q(r) pseudized with  8 coefficients,  rinner =    0.900   0.900   0.900
                                                       0.900   0.900

     PseudoPot. # 2 for H  read from file:
     ../pseudo/h_pbe_v1.4.uspp.F.UPF
     MD5 check sum: 761ae9a214b05c3daf00ab9f6b793d6f
     Pseudo is Ultrasoft, Zval =  1.0
     Generated by new atomic code, or converted to UPF format
     Using radial grid of  615 points,  2 beta functions with: 
                l(1) =   0
                l(2) =   0
     Q(r) pseudized with  8 coefficients,  rinner =    0.700

     atomic species   valence    mass     pseudopotential
     O                 6.00    16.00000     O ( 1.00)
     H                 1.00     1.00800     H ( 1.00)

      2 Sym. Ops. (no inversion) found



   Cartesian axes

     site n.     atom                  positions (alat units)
         1        O      tau(   1) = (   0.0000000   0.0000000   0.0000000  )
         2        H      tau(   2) = (   0.0300000   0.0300000   0.0300000  )
         3        H      tau(   3) = (   0.0300000   0.0300000  -0.0300000  )

     number of k points=     1  Gaussian smearing, width (Ry)=  0.0100
                       cart. coord. in units 2pi/alat
        k(    1) = (   0.0000000   0.0000000   0.0000000), wk =   2.0000000

     Dense  grid:  2609742 G-vectors     FFT dimensions: ( 216, 216, 216)

     Smooth grid:   922787 G-vectors     FFT dimensions: ( 160, 160, 160)

     Estimated max dynamical RAM per process >     102.64 MB

     Estimated total dynamical RAM >       6.42 GB

     Solute:
       # atom     E (kcal/mol)  S (angs)
       1  O       0.15540000    3.16600000    given
       2  H       0.04600000    1.00000000    given
       3  H       0.04600000    1.00000000    given


     Laue-RISM info
     --------------
     closure equation        =           KH
     temperature             =     300.0000  kelvin
     coulomb smearing radius =       2.0000  bohr
     number of solvent sites =            6
     solvent sites           =    O/h2o   H/h2o   L/h2o       K
     solvent sites           =     O/oh    H/oh
     number of iterations    =        10000
     convergence threshold   =      1.0E-06
     convergence level       =       0.5000
     size of MDIIS           =           10
     step of MDIIS           =       0.4000
     solvent cutoff          =     160.0000  Ry
     Custom grid:   922787 G-vectors     FFT dimensions: ( 160, 160, 160)

     Boundary Conditions        : Solvent-Slab-Solvent
     unit-cell (in bohr)        : [ -18.897261  18.897261]
     expand-cell (in bohr)      : [ -79.840929  79.604713]
     solvent of left (in bohr)  : [ -79.840929   0.000000]
     solvent of right (in bohr) : [   0.000000  79.604713]
     reference of potential     : average of both sides
     #grids to fit at edges of unit-cell =    4
     Laue grid:     9099 Gxy-vectors     FFT dimensions: ( 160, 160, 675)


     Initial potential from superposition of free atoms

     starting charge       8.0000, renormalised to       8.0000

     negative rho (up, down):  7.484E-04 0.000E+00

     Laue-RISM Calculation

     convergence threshold    = 1.000E-04
     iter. #     1  RMS(g-h-1)= 1.339E-01  nbox=  0
     iter. #    11  RMS(g-h-1)= 6.710E-03  nbox= 10
     iter. #    21  RMS(g-h-1)= 4.304E-03  nbox= 10
     iter. #    31  RMS(g-h-1)= 1.750E-03  nbox= 10
     iter. #    41  RMS(g-h-1)= 1.287E-03  nbox= 10
     iter. #    51  RMS(g-h-1)= 8.405E-04  nbox= 10
     iter. #    61  RMS(g-h-1)= 6.024E-04  nbox= 10
     iter. #    71  RMS(g-h-1)= 5.065E-04  nbox= 10
     iter. #    81  RMS(g-h-1)= 4.460E-04  nbox=  3
     iter. #    91  RMS(g-h-1)= 2.620E-04  nbox= 10
     iter. #   101  RMS(g-h-1)= 1.932E-04  nbox= 10
     iter. #   111  RMS(g-h-1)= 1.416E-04  nbox= 10
     iter. #   116  RMS(g-h-1)= 9.759E-05  nbox= 10

     End of Laue-RISM calculation


     convergence has been achieved in   116 iterations


     solvent charge    0.01598, renormalised to   -0.00000

     Total number of solvent (in expand-cell)
     H2O         1125.929134
     K+            20.298954
     OH-           20.307468

     Total charge of solvent (in expand-cell)
     H2O           -0.015312 e
     K+            20.298954 e
     OH-          -20.267666 e
     Total          0.015976 e

     Chemical potential of solvation (in expand-cell)
     H2O        GaussFluct   0.169237E+01 kcal/mol
     K+         GaussFluct   0.209303E+00 kcal/mol
     OH-        GaussFluct  -0.681485E-01 kcal/mol
     Total      GaussFluct   0.183353E+01 kcal/mol

     Starting wfcs are    6 randomized atomic wfcs +   14 random wfcs

     total cpu time spent up to now is      241.1 secs

     Self-consistent Calculation

     iteration #  1     ecut=    40.00 Ry     beta= 0.10
     Davidson diagonalization with overlap
     ethr =  1.00E-02,  avg # of iterations =  7.0

     negative rho (up, down):  1.126E-03 0.000E+00

     Laue-RISM Calculation

     convergence threshold    = 1.000E-04
     iter. #     1  RMS(g-h-1)= 2.753E-03  nbox=  0
     iter. #    11  RMS(g-h-1)= 3.698E-04  nbox= 10
     iter. #    21  RMS(g-h-1)= 1.616E-04  nbox= 10
     iter. #    30  RMS(g-h-1)= 9.995E-05  nbox= 10

     End of Laue-RISM calculation


     convergence has been achieved in    30 iterations


     solvent charge   -0.03940, renormalised to    0.00000

     Total number of solvent (in expand-cell)
     H2O         1126.021192
     K+            20.267310
     OH-           20.310563

     Total charge of solvent (in expand-cell)
     H2O           -0.009966 e
     K+            20.267310 e
     OH-          -20.296743 e
     Total         -0.039399 e

     Chemical potential of solvation (in expand-cell)
     H2O        GaussFluct   0.117647E+01 kcal/mol
     K+         GaussFluct   0.207923E+00 kcal/mol
     OH-        GaussFluct  -0.115621E-01 kcal/mol
     Total      GaussFluct   0.137283E+01 kcal/mol


     total cpu time spent up to now is      263.1 secs

     total energy              =     -34.67532571 Ry
     estimated scf accuracy    <       0.42790221 Ry

     iteration #  2     ecut=    40.00 Ry     beta= 0.10
     Davidson diagonalization with overlap
     ethr =  5.35E-03,  avg # of iterations =  1.0

     negative rho (up, down):  3.668E-03 0.000E+00

     Laue-RISM Calculation

     convergence threshold    = 1.000E-04
     iter. #     1  RMS(g-h-1)= 8.077E-03  nbox=  0
     iter. #    11  RMS(g-h-1)= 1.105E-03  nbox= 10
     iter. #    21  RMS(g-h-1)= 5.697E-04  nbox= 10
     iter. #    31  RMS(g-h-1)= 3.258E-04  nbox= 10
     iter. #    41  RMS(g-h-1)= 2.340E-04  nbox= 10
     iter. #    51  RMS(g-h-1)= 1.589E-04  nbox= 10
     iter. #    61  RMS(g-h-1)= 1.325E-04  nbox= 10
     iter. #    71  RMS(g-h-1)= 1.084E-04  nbox= 10
     iter. #    76  RMS(g-h-1)= 9.995E-05  nbox= 10

     End of Laue-RISM calculation


     convergence has been achieved in    76 iterations


     solvent charge   -0.08424, renormalised to    0.00000

     Total number of solvent (in expand-cell)
     H2O         1126.281582
     K+            20.308198
     OH-           20.332366

     Total charge of solvent (in expand-cell)
     H2O           -0.013925 e
     K+            20.308198 e
     OH-          -20.378510 e
     Total         -0.084236 e

     Chemical potential of solvation (in expand-cell)
     H2O        GaussFluct  -0.170128E+01 kcal/mol
     K+         GaussFluct  -0.124374E+00 kcal/mol
     OH-        GaussFluct  -0.596726E+00 kcal/mol
     Total      GaussFluct  -0.242238E+01 kcal/mol


     total cpu time spent up to now is      312.8 secs

     total energy              =     -34.59103638 Ry
     estimated scf accuracy    <       0.24148627 Ry

     iteration #  3     ecut=    40.00 Ry     beta= 0.10
     Davidson diagonalization with overlap
     ethr =  3.02E-03,  avg # of iterations =  2.0

     negative rho (up, down):  5.052E-03 0.000E+00

     Laue-RISM Calculation

     convergence threshold    = 3.340E-05
     iter. #     1  RMS(g-h-1)= 1.504E-03  nbox=  0
     iter. #    11  RMS(g-h-1)= 1.860E-04  nbox= 10
     iter. #    21  RMS(g-h-1)= 1.228E-04  nbox= 10
     iter. #    31  RMS(g-h-1)= 9.949E-05  nbox= 10
     iter. #    41  RMS(g-h-1)= 8.377E-05  nbox= 10
     iter. #    51  RMS(g-h-1)= 6.650E-05  nbox=  6
     iter. #    61  RMS(g-h-1)= 4.257E-05  nbox= 10
     iter. #    68  RMS(g-h-1)= 3.280E-05  nbox= 10

     End of Laue-RISM calculation


     convergence has been achieved in    68 iterations


     solvent charge   -0.02784, renormalised to    0.00000

     Total number of solvent (in expand-cell)
     H2O         1126.403114
     K+            20.340932
     OH-           20.333443

     Total charge of solvent (in expand-cell)
     H2O           -0.010427 e
     K+            20.340932 e
     OH-          -20.358348 e
     Total         -0.027842 e

     Chemical potential of solvation (in expand-cell)
     H2O        GaussFluct  -0.289941E+01 kcal/mol
     K+         GaussFluct  -0.314595E+00 kcal/mol
     OH-        GaussFluct  -0.537665E+00 kcal/mol
     Total      GaussFluct  -0.375167E+01 kcal/mol


     total cpu time spent up to now is      357.1 secs

     total energy              =     -34.62969387 Ry
     estimated scf accuracy    <       0.02237851 Ry

     iteration #  4     ecut=    40.00 Ry     beta= 0.10
     Davidson diagonalization with overlap
     ethr =  2.80E-04,  avg # of iterations = 13.0

     negative rho (up, down):  1.003E-02 0.000E+00

     Laue-RISM Calculation

     convergence threshold    = 1.886E-05
     iter. #     1  RMS(g-h-1)= 4.704E-03  nbox=  0
     iter. #    11  RMS(g-h-1)= 6.325E-04  nbox= 10
     iter. #    21  RMS(g-h-1)= 2.985E-04  nbox= 10
     iter. #    31  RMS(g-h-1)= 1.685E-04  nbox= 10
     iter. #    41  RMS(g-h-1)= 1.284E-04  nbox= 10
     iter. #    51  RMS(g-h-1)= 1.025E-04  nbox= 10
     iter. #    61  RMS(g-h-1)= 8.301E-05  nbox= 10
     iter. #    71  RMS(g-h-1)= 7.314E-05  nbox= 10
     iter. #    81  RMS(g-h-1)= 5.009E-05  nbox= 10
     iter. #    91  RMS(g-h-1)= 3.498E-05  nbox= 10
     iter. #   101  RMS(g-h-1)= 2.700E-05  nbox= 10
     iter. #   110  RMS(g-h-1)= 1.832E-05  nbox= 10

     End of Laue-RISM calculation


     convergence has been achieved in   110 iterations


     solvent charge   -0.00756, renormalised to    0.00000

     Total number of solvent (in expand-cell)
     H2O         1126.758991
     K+            20.396555
     OH-           20.396117

     Total charge of solvent (in expand-cell)
     H2O            0.003286 e
     K+            20.396555 e
     OH-          -20.407399 e
     Total         -0.007558 e

     Chemical potential of solvation (in expand-cell)
     H2O        GaussFluct  -0.750807E+01 kcal/mol
     K+         GaussFluct  -0.826763E+00 kcal/mol
     OH-        GaussFluct  -0.139847E+01 kcal/mol
     Total      GaussFluct  -0.973331E+01 kcal/mol


     total cpu time spent up to now is      427.1 secs

     total energy              =     -34.63181688 Ry
     estimated scf accuracy    <       0.01181306 Ry

     iteration #  5     ecut=    40.00 Ry     beta= 0.10
     Davidson diagonalization with overlap
     c_bands:  1 eigenvalues not converged
     ethr =  1.48E-04,  avg # of iterations = 20.0

     negative rho (up, down):  9.354E-03 0.000E+00

     Laue-RISM Calculation

     convergence threshold    = 1.953E-06
     iter. #     1  RMS(g-h-1)= 3.550E-04  nbox=  0
     iter. #    11  RMS(g-h-1)= 4.848E-05  nbox= 10
     iter. #    21  RMS(g-h-1)= 2.319E-05  nbox= 10
     iter. #    31  RMS(g-h-1)= 1.658E-05  nbox= 10
     iter. #    41  RMS(g-h-1)= 1.337E-05  nbox= 10
     iter. #    51  RMS(g-h-1)= 1.179E-05  nbox= 10
     iter. #    61  RMS(g-h-1)= 9.175E-06  nbox=  9
     iter. #    71  RMS(g-h-1)= 6.940E-06  nbox= 10
     iter. #    81  RMS(g-h-1)= 6.213E-06  nbox=  2
     iter. #    91  RMS(g-h-1)= 5.061E-06  nbox= 10
     iter. #   101  RMS(g-h-1)= 4.660E-06  nbox=  6
     iter. #   111  RMS(g-h-1)= 4.447E-06  nbox= 10
     iter. #   121  RMS(g-h-1)= 4.240E-06  nbox= 10
     iter. #   131  RMS(g-h-1)= 3.904E-06  nbox=  4
     iter. #   141  RMS(g-h-1)= 3.704E-06  nbox= 10
     iter. #   151  RMS(g-h-1)= 3.504E-06  nbox=  8
     iter. #   161  RMS(g-h-1)= 3.431E-06  nbox=  2
     iter. #   171  RMS(g-h-1)= 3.321E-06  nbox= 10
     iter. #   181  RMS(g-h-1)= 3.171E-06  nbox=  6
     iter. #   191  RMS(g-h-1)= 3.065E-06  nbox= 10
     iter. #   201  RMS(g-h-1)= 2.971E-06  nbox= 10
     iter. #   211  RMS(g-h-1)= 2.813E-06  nbox=  4
     iter. #   221  RMS(g-h-1)= 2.720E-06  nbox= 10
     iter. #   231  RMS(g-h-1)= 2.690E-06  nbox=  8
     iter. #   241  RMS(g-h-1)= 2.654E-06  nbox=  2
     iter. #   251  RMS(g-h-1)= 2.615E-06  nbox= 10
     iter. #   261  RMS(g-h-1)= 2.570E-06  nbox=  6
     iter. #   271  RMS(g-h-1)= 2.428E-06  nbox= 10
     iter. #   281  RMS(g-h-1)= 2.328E-06  nbox= 10
     iter. #   291  RMS(g-h-1)= 2.274E-06  nbox=  4
     iter. #   301  RMS(g-h-1)= 2.235E-06  nbox= 10
     iter. #   311  RMS(g-h-1)= 2.203E-06  nbox=  8
     iter. #   321  RMS(g-h-1)= 2.187E-06  nbox=  2
     iter. #   331  RMS(g-h-1)= 2.156E-06  nbox= 10
     iter. #   341  RMS(g-h-1)= 2.094E-06  nbox=  6
     iter. #   351  RMS(g-h-1)= 1.977E-06  nbox= 10
     iter. #   354  RMS(g-h-1)= 1.951E-06  nbox=  3

     End of Laue-RISM calculation


     convergence has been achieved in   354 iterations


     solvent charge    0.00251, renormalised to    0.00000

     Total number of solvent (in expand-cell)
     H2O         1126.783784
     K+            20.402624
     OH-           20.402659

     Total charge of solvent (in expand-cell)
     H2O            0.002538 e
     K+            20.402624 e
     OH-          -20.402651 e
     Total          0.002511 e

     Chemical potential of solvation (in expand-cell)
     H2O        GaussFluct  -0.789367E+01 kcal/mol
     K+         GaussFluct  -0.868605E+00 kcal/mol
     OH-        GaussFluct  -0.142666E+01 kcal/mol
     Total      GaussFluct  -0.101889E+02 kcal/mol


     total cpu time spent up to now is      640.8 secs

     total energy              =     -34.63271994 Ry
     estimated scf accuracy    <       0.00093664 Ry

     iteration #  6     ecut=    40.00 Ry     beta= 0.10
     Davidson diagonalization with overlap
     ethr =  1.17E-05,  avg # of iterations = 18.0

     negative rho (up, down):  8.619E-03 0.000E+00

     Laue-RISM Calculation

     convergence threshold    = 1.462E-06
     iter. #     1  RMS(g-h-1)= 6.419E-04  nbox=  0
     iter. #    11  RMS(g-h-1)= 8.520E-05  nbox= 10
     iter. #    21  RMS(g-h-1)= 4.374E-05  nbox= 10
     iter. #    31  RMS(g-h-1)= 2.549E-05  nbox= 10
     iter. #    41  RMS(g-h-1)= 1.558E-05  nbox= 10
     iter. #    51  RMS(g-h-1)= 1.124E-05  nbox= 10
     iter. #    61  RMS(g-h-1)= 9.276E-06  nbox= 10
     iter. #    71  RMS(g-h-1)= 8.066E-06  nbox=  4
     iter. #    81  RMS(g-h-1)= 5.585E-06  nbox= 10
     iter. #    91  RMS(g-h-1)= 3.869E-06  nbox= 10
     iter. #   101  RMS(g-h-1)= 2.862E-06  nbox= 10
     iter. #   111  RMS(g-h-1)= 2.452E-06  nbox= 10
     iter. #   121  RMS(g-h-1)= 2.294E-06  nbox= 10
     iter. #   131  RMS(g-h-1)= 2.062E-06  nbox= 10
     iter. #   141  RMS(g-h-1)= 1.948E-06  nbox=  4
     iter. #   151  RMS(g-h-1)= 1.846E-06  nbox= 10
     iter. #   161  RMS(g-h-1)= 1.784E-06  nbox=  8
     iter. #   171  RMS(g-h-1)= 1.759E-06  nbox=  2
     iter. #   181  RMS(g-h-1)= 1.719E-06  nbox= 10
     iter. #   191  RMS(g-h-1)= 1.671E-06  nbox=  6
     iter. #   201  RMS(g-h-1)= 1.640E-06  nbox= 10
     iter. #   211  RMS(g-h-1)= 1.600E-06  nbox= 10
     iter. #   221  RMS(g-h-1)= 1.562E-06  nbox=  4
     iter. #   231  RMS(g-h-1)= 1.510E-06  nbox= 10
     iter. #   241  RMS(g-h-1)= 1.479E-06  nbox=  8
     iter. #   245  RMS(g-h-1)= 1.457E-06  nbox= 10

     End of Laue-RISM calculation


     convergence has been achieved in   245 iterations


     solvent charge    0.00402, renormalised to   -0.00000

     Total number of solvent (in expand-cell)
     H2O         1126.745287
     K+            20.394230
     OH-           20.394202

     Total charge of solvent (in expand-cell)
     H2O            0.003968 e
     K+            20.394230 e
     OH-          -20.394176 e
     Total          0.004022 e

     Chemical potential of solvation (in expand-cell)
     H2O        GaussFluct  -0.727785E+01 kcal/mol
     K+         GaussFluct  -0.787804E+00 kcal/mol
     OH-        GaussFluct  -0.130524E+01 kcal/mol
     Total      GaussFluct  -0.937090E+01 kcal/mol


     total cpu time spent up to now is      789.9 secs

     total energy              =     -34.63306282 Ry
     estimated scf accuracy    <       0.00067799 Ry

     iteration #  7     ecut=    40.00 Ry     beta= 0.10
     Davidson diagonalization with overlap
     ethr =  8.47E-06,  avg # of iterations =  2.0

     negative rho (up, down):  7.806E-03 0.000E+00

     Laue-RISM Calculation

     convergence threshold    = 4.595E-06
     iter. #     1  RMS(g-h-1)= 1.575E-03  nbox=  0
     iter. #    11  RMS(g-h-1)= 2.241E-04  nbox= 10
     iter. #    21  RMS(g-h-1)= 1.168E-04  nbox= 10
     iter. #    31  RMS(g-h-1)= 7.030E-05  nbox= 10
     iter. #    41  RMS(g-h-1)= 4.439E-05  nbox= 10
     iter. #    51  RMS(g-h-1)= 3.118E-05  nbox= 10
     iter. #    61  RMS(g-h-1)= 2.486E-05  nbox= 10
     iter. #    71  RMS(g-h-1)= 2.169E-05  nbox= 10
     iter. #    81  RMS(g-h-1)= 1.627E-05  nbox= 10
     iter. #    91  RMS(g-h-1)= 1.085E-05  nbox= 10
     iter. #   101  RMS(g-h-1)= 8.504E-06  nbox= 10
     iter. #   111  RMS(g-h-1)= 4.881E-06  nbox= 10
     iter. #   120  RMS(g-h-1)= 4.546E-06  nbox= 10

     End of Laue-RISM calculation


     convergence has been achieved in   120 iterations


     solvent charge    0.00560, renormalised to    0.00000

     Total number of solvent (in expand-cell)
     H2O         1126.858126
     K+            20.418742
     OH-           20.417944

     Total charge of solvent (in expand-cell)
     H2O            0.003316 e
     K+            20.418742 e
     OH-          -20.416456 e
     Total          0.005601 e

     Chemical potential of solvation (in expand-cell)
     H2O        GaussFluct  -0.906882E+01 kcal/mol
     K+         GaussFluct  -0.102717E+01 kcal/mol
     OH-        GaussFluct  -0.165879E+01 kcal/mol
     Total      GaussFluct  -0.117548E+02 kcal/mol


     total cpu time spent up to now is      868.3 secs

     total energy              =     -34.63256858 Ry
     estimated scf accuracy    <       0.00243787 Ry

     iteration #  8     ecut=    40.00 Ry     beta= 0.10
     Davidson diagonalization with overlap
     ethr =  8.47E-06,  avg # of iterations =  2.0

     negative rho (up, down):  7.268E-03 0.000E+00

     Laue-RISM Calculation

     convergence threshold    = 1.000E-06
     iter. #     1  RMS(g-h-1)= 1.076E-04  nbox=  0
     iter. #    11  RMS(g-h-1)= 1.458E-05  nbox= 10
     iter. #    21  RMS(g-h-1)= 6.710E-06  nbox= 10
     iter. #    31  RMS(g-h-1)= 5.381E-06  nbox= 10
     iter. #    41  RMS(g-h-1)= 4.316E-06  nbox= 10
     iter. #    51  RMS(g-h-1)= 4.062E-06  nbox= 10
     iter. #    61  RMS(g-h-1)= 3.494E-06  nbox=  8
     iter. #    71  RMS(g-h-1)= 3.097E-06  nbox=  2
     iter. #    81  RMS(g-h-1)= 2.688E-06  nbox= 10
     iter. #    91  RMS(g-h-1)= 2.553E-06  nbox=  6
     iter. #   101  RMS(g-h-1)= 2.425E-06  nbox= 10
     iter. #   111  RMS(g-h-1)= 2.265E-06  nbox= 10
     iter. #   121  RMS(g-h-1)= 2.085E-06  nbox=  4
     iter. #   131  RMS(g-h-1)= 2.006E-06  nbox= 10
     iter. #   141  RMS(g-h-1)= 1.934E-06  nbox=  8
     iter. #   151  RMS(g-h-1)= 1.884E-06  nbox=  2
     iter. #   161  RMS(g-h-1)= 1.807E-06  nbox= 10
     iter. #   171  RMS(g-h-1)= 1.770E-06  nbox=  6
     iter. #   181  RMS(g-h-1)= 1.734E-06  nbox= 10
     iter. #   191  RMS(g-h-1)= 1.703E-06  nbox= 10
     iter. #   201  RMS(g-h-1)= 1.679E-06  nbox=  4
     iter. #   211  RMS(g-h-1)= 1.655E-06  nbox= 10
     iter. #   221  RMS(g-h-1)= 1.628E-06  nbox=  8
     iter. #   231  RMS(g-h-1)= 1.591E-06  nbox=  2
     iter. #   241  RMS(g-h-1)= 1.545E-06  nbox= 10
     iter. #   251  RMS(g-h-1)= 1.514E-06  nbox=  6
     iter. #   261  RMS(g-h-1)= 1.466E-06  nbox= 10
     iter. #   271  RMS(g-h-1)= 1.441E-06  nbox= 10
     iter. #   281  RMS(g-h-1)= 1.412E-06  nbox=  4
     iter. #   291  RMS(g-h-1)= 1.390E-06  nbox= 10
     iter. #   301  RMS(g-h-1)= 1.351E-06  nbox=  8
     iter. #   311  RMS(g-h-1)= 1.342E-06  nbox=  2
     iter. #   321  RMS(g-h-1)= 1.329E-06  nbox= 10
     iter. #   331  RMS(g-h-1)= 1.323E-06  nbox=  6
     iter. #   341  RMS(g-h-1)= 1.312E-06  nbox= 10
     iter. #   351  RMS(g-h-1)= 1.297E-06  nbox= 10
     iter. #   361  RMS(g-h-1)= 1.280E-06  nbox=  4
     iter. #   371  RMS(g-h-1)= 1.256E-06  nbox= 10
     iter. #   381  RMS(g-h-1)= 1.232E-06  nbox=  8
     iter. #   391  RMS(g-h-1)= 1.218E-06  nbox=  2
     iter. #   401  RMS(g-h-1)= 1.201E-06  nbox= 10
     iter. #   411  RMS(g-h-1)= 1.187E-06  nbox=  6
     iter. #   421  RMS(g-h-1)= 1.172E-06  nbox= 10
     iter. #   431  RMS(g-h-1)= 1.158E-06  nbox= 10
     iter. #   441  RMS(g-h-1)= 1.152E-06  nbox=  4
     iter. #   451  RMS(g-h-1)= 1.145E-06  nbox= 10
     iter. #   461  RMS(g-h-1)= 1.138E-06  nbox=  8
     iter. #   471  RMS(g-h-1)= 1.133E-06  nbox=  2
     iter. #   481  RMS(g-h-1)= 1.123E-06  nbox= 10
     iter. #   491  RMS(g-h-1)= 1.118E-06  nbox=  6
     iter. #   501  RMS(g-h-1)= 1.110E-06  nbox= 10
     iter. #   511  RMS(g-h-1)= 1.105E-06  nbox= 10
     iter. #   521  RMS(g-h-1)= 1.100E-06  nbox=  4
     iter. #   531  RMS(g-h-1)= 1.095E-06  nbox= 10
     iter. #   541  RMS(g-h-1)= 1.091E-06  nbox=  8
     iter. #   551  RMS(g-h-1)= 1.082E-06  nbox=  2
     iter. #   561  RMS(g-h-1)= 1.075E-06  nbox= 10
     iter. #   571  RMS(g-h-1)= 1.070E-06  nbox=  6
     iter. #   581  RMS(g-h-1)= 1.059E-06  nbox= 10
     iter. #   591  RMS(g-h-1)= 1.034E-06  nbox= 10
     iter. #   600  RMS(g-h-1)= 9.996E-07  nbox=  3

     End of Laue-RISM calculation


     convergence has been achieved in   600 iterations


     solvent charge    0.00367, renormalised to    0.00000

     Total number of solvent (in expand-cell)
     H2O         1126.862051
     K+            20.418669
     OH-           20.418187

     Total charge of solvent (in expand-cell)
     H2O            0.003209 e
     K+            20.418669 e
     OH-          -20.418203 e
     Total          0.003675 e

     Chemical potential of solvation (in expand-cell)
     H2O        GaussFluct  -0.914204E+01 kcal/mol
     K+         GaussFluct  -0.103458E+01 kcal/mol
     OH-        GaussFluct  -0.167538E+01 kcal/mol
     Total      GaussFluct  -0.118520E+02 kcal/mol


     total cpu time spent up to now is     1225.4 secs

     total energy              =     -34.63278548 Ry
     estimated scf accuracy    <       0.00013966 Ry

     iteration #  9     ecut=    40.00 Ry     beta= 0.10
     Davidson diagonalization with overlap
     ethr =  1.75E-06,  avg # of iterations =  5.0

     negative rho (up, down):  6.832E-03 0.000E+00

     Laue-RISM Calculation

     convergence threshold    = 1.000E-06
     iter. #     1  RMS(g-h-1)= 1.830E-04  nbox=  0
     iter. #    11  RMS(g-h-1)= 2.253E-05  nbox= 10
     iter. #    21  RMS(g-h-1)= 8.832E-06  nbox= 10
     iter. #    31  RMS(g-h-1)= 5.885E-06  nbox= 10
     iter. #    41  RMS(g-h-1)= 4.559E-06  nbox= 10
     iter. #    51  RMS(g-h-1)= 3.275E-06  nbox= 10
     iter. #    61  RMS(g-h-1)= 2.674E-06  nbox= 10
     iter. #    71  RMS(g-h-1)= 2.171E-06  nbox= 10
     iter. #    81  RMS(g-h-1)= 1.809E-06  nbox= 10
     iter. #    91  RMS(g-h-1)= 1.333E-06  nbox= 10
     iter. #   101  RMS(g-h-1)= 1.191E-06  nbox= 10
     iter. #   111  RMS(g-h-1)= 1.046E-06  nbox= 10
     iter. #   119  RMS(g-h-1)= 9.989E-07  nbox=  3

     End of Laue-RISM calculation


     convergence has been achieved in   119 iterations


     solvent charge    0.00371, renormalised to    0.00000

     Total number of solvent (in expand-cell)
     H2O         1126.849164
     K+            20.416359
     OH-           20.415942

     Total charge of solvent (in expand-cell)
     H2O            0.003328 e
     K+            20.416359 e
     OH-          -20.415974 e
     Total          0.003714 e

     Chemical potential of solvation (in expand-cell)
     H2O        GaussFluct  -0.894692E+01 kcal/mol
     K+         GaussFluct  -0.100829E+01 kcal/mol
     OH-        GaussFluct  -0.163573E+01 kcal/mol
     Total      GaussFluct  -0.115909E+02 kcal/mol


     total cpu time spent up to now is     1300.6 secs

     total energy              =     -34.63274594 Ry
     estimated scf accuracy    <       0.00006689 Ry

     iteration # 10     ecut=    40.00 Ry     beta= 0.10
     Davidson diagonalization with overlap
     ethr =  8.36E-07,  avg # of iterations =  2.0

     negative rho (up, down):  6.528E-03 0.000E+00

     Laue-RISM Calculation

     convergence threshold    = 1.000E-06
     iter. #     1  RMS(g-h-1)= 3.747E-05  nbox=  0
     iter. #    11  RMS(g-h-1)= 4.439E-06  nbox= 10
     iter. #    21  RMS(g-h-1)= 1.965E-06  nbox= 10
     iter. #    31  RMS(g-h-1)= 1.541E-06  nbox= 10
     iter. #    41  RMS(g-h-1)= 1.281E-06  nbox= 10
     iter. #    51  RMS(g-h-1)= 1.049E-06  nbox=  9
     iter. #    61  RMS(g-h-1)= 1.008E-06  nbox=  3
     iter. #    63  RMS(g-h-1)= 9.972E-07  nbox=  5

     End of Laue-RISM calculation


     convergence has been achieved in    63 iterations


     solvent charge    0.00383, renormalised to    0.00000

     Total number of solvent (in expand-cell)
     H2O         1126.851887
     K+            20.416938
     OH-           20.416516

     Total charge of solvent (in expand-cell)
     H2O            0.003302 e
     K+            20.416938 e
     OH-          -20.416413 e
     Total          0.003827 e

     Chemical potential of solvation (in expand-cell)
     H2O        GaussFluct  -0.898794E+01 kcal/mol
     K+         GaussFluct  -0.101380E+01 kcal/mol
     OH-        GaussFluct  -0.164458E+01 kcal/mol
     Total      GaussFluct  -0.116463E+02 kcal/mol


     total cpu time spent up to now is     1342.0 secs

     total energy              =     -34.63275421 Ry
     estimated scf accuracy    <       0.00000591 Ry

     iteration # 11     ecut=    40.00 Ry     beta= 0.10
     Davidson diagonalization with overlap
     ethr =  7.38E-08,  avg # of iterations =  2.0

     negative rho (up, down):  6.283E-03 0.000E+00

     Laue-RISM Calculation

     convergence threshold    = 1.000E-06
     iter. #     1  RMS(g-h-1)= 2.013E-05  nbox=  0
     iter. #    11  RMS(g-h-1)= 2.751E-06  nbox= 10
     iter. #    21  RMS(g-h-1)= 1.463E-06  nbox= 10
     iter. #    31  RMS(g-h-1)= 1.206E-06  nbox= 10
     iter. #    41  RMS(g-h-1)= 1.066E-06  nbox=  8
     iter. #    50  RMS(g-h-1)= 9.973E-07  nbox= 10

     End of Laue-RISM calculation


     convergence has been achieved in    50 iterations


     solvent charge    0.00380, renormalised to    0.00000

     Total number of solvent (in expand-cell)
     H2O         1126.853614
     K+            20.417288
     OH-           20.416821

     Total charge of solvent (in expand-cell)
     H2O            0.003278 e
     K+            20.417288 e
     OH-          -20.416766 e
     Total          0.003800 e

     Chemical potential of solvation (in expand-cell)
     H2O        GaussFluct  -0.901475E+01 kcal/mol
     K+         GaussFluct  -0.101750E+01 kcal/mol
     OH-        GaussFluct  -0.165058E+01 kcal/mol
     Total      GaussFluct  -0.116828E+02 kcal/mol


     total cpu time spent up to now is     1376.0 secs

     total energy              =     -34.63275551 Ry
     estimated scf accuracy    <       0.00000102 Ry

     iteration # 12     ecut=    40.00 Ry     beta= 0.10
     Davidson diagonalization with overlap
     ethr =  1.27E-08,  avg # of iterations =  1.0

     negative rho (up, down):  6.345E-03 0.000E+00

     Laue-RISM Calculation

     convergence threshold    = 1.000E-06
     iter. #     1  RMS(g-h-1)= 1.787E-05  nbox=  0
     iter. #    11  RMS(g-h-1)= 2.229E-06  nbox= 10
     iter. #    21  RMS(g-h-1)= 1.295E-06  nbox= 10
     iter. #    31  RMS(g-h-1)= 1.137E-06  nbox= 10
     iter. #    41  RMS(g-h-1)= 1.070E-06  nbox=  2
     iter. #    49  RMS(g-h-1)= 9.978E-07  nbox= 10

     End of Laue-RISM calculation


     convergence has been achieved in    49 iterations


     solvent charge    0.00366, renormalised to    0.00000

     Total number of solvent (in expand-cell)
     H2O         1126.854701
     K+            20.417439
     OH-           20.417012

     Total charge of solvent (in expand-cell)
     H2O            0.003275 e
     K+            20.417439 e
     OH-          -20.417050 e
     Total          0.003664 e

     Chemical potential of solvation (in expand-cell)
     H2O        GaussFluct  -0.903128E+01 kcal/mol
     K+         GaussFluct  -0.101991E+01 kcal/mol
     OH-        GaussFluct  -0.165410E+01 kcal/mol
     Total      GaussFluct  -0.117053E+02 kcal/mol


     total cpu time spent up to now is     1409.0 secs

     End of self-consistent calculation

          k = 0.0000 0.0000 0.0000 (115195 PWs)   bands (ev):

   -25.0441 -10.9269 -10.4918  -7.3187  -0.8747  -0.1988   0.0768   0.0918
     0.0942   0.1235   0.1249   0.2622   0.4015   0.4197   0.4203   0.4851
     0.4906   0.4999   0.5004   0.5046

     the Fermi energy is    -5.2023 ev

!    total energy              =     -34.63274764 Ry
     estimated scf accuracy    <       0.00000024 Ry
     smearing contrib. (-TS)   =      -0.00000000 Ry
     internal energy E=F+TS    =     -34.63274764 Ry

     The total energy is F=E-TS. E is the sum of the following terms:
     one-electron contribution =     -68.01755019 Ry
     hartree contribution      =      35.51214314 Ry
     xc contribution           =      -8.58734816 Ry
     ewald contribution        =       6.49733964 Ry
     solvation energy (RISM)   =      -0.03733207 Ry

     convergence has been achieved in  12 iterations

     negative rho (up, down):  6.345E-03 0.000E+00

     Forces acting on atoms (cartesian axes, Ry/au):

     atom    1 type  1   force =     0.11979106    0.11979106    0.00001483
     atom    2 type  2   force =    -0.05989574   -0.05989574    0.05337141
     atom    3 type  2   force =    -0.05989532   -0.05989532   -0.05337121

     Total force =     0.220787     Total SCF correction =     0.000705

     BFGS Geometry Optimization
     Energy error            =      4.9E-02 Ry
     Gradient error          =      1.2E-01 Ry/Bohr

     number of scf cycles    =   1
     number of bfgs steps    =   0

     energy             new  =     -34.6327476366 Ry

     new trust radius        =       0.1694101493 bohr
     new conv_thr            =       0.0000010000 Ry


ATOMIC_POSITIONS (angstrom)
O                0.0633907016        0.0633907016        0.0000078502
H                0.5683045373        0.5683045373        0.6282429332
H                0.5683047611        0.5683047611       -0.6282428273



     Writing config-only to output data dir output/opt.save/ :
     XML data file
     NEW-OLD atomic charge density approx. for the potential

     negative rho (up, down):  6.460E-03 0.000E+00

     Laue-RISM Calculation

     convergence threshold    = 1.000E-04
     iter. #     1  RMS(g-h-1)= 9.496E-02  nbox=  0
     iter. #    11  RMS(g-h-1)= 4.987E-03  nbox= 10
     iter. #    21  RMS(g-h-1)= 2.701E-03  nbox= 10
     iter. #    31  RMS(g-h-1)= 1.033E-03  nbox= 10
     iter. #    41  RMS(g-h-1)= 7.629E-04  nbox= 10
     iter. #    51  RMS(g-h-1)= 3.655E-04  nbox= 10
     iter. #    61  RMS(g-h-1)= 2.813E-04  nbox= 10
     iter. #    71  RMS(g-h-1)= 2.051E-04  nbox= 10
     iter. #    81  RMS(g-h-1)= 1.440E-04  nbox= 10
     iter. #    90  RMS(g-h-1)= 9.955E-05  nbox= 10

     End of Laue-RISM calculation


     convergence has been achieved in    90 iterations


     solvent charge    0.00299, renormalised to    0.00000

     Total number of solvent (in expand-cell)
     H2O         1126.766361
     K+            20.433138
     OH-           20.420786

     Total charge of solvent (in expand-cell)
     H2O            0.007034 e
     K+            20.433138 e
     OH-          -20.437186 e
     Total          0.002986 e

     Chemical potential of solvation (in expand-cell)
     H2O        GaussFluct  -0.827673E+01 kcal/mol
     K+         GaussFluct  -0.113874E+01 kcal/mol
     OH-        GaussFluct  -0.171347E+01 kcal/mol
     Total      GaussFluct  -0.111289E+02 kcal/mol


     total cpu time spent up to now is     1470.5 secs

     Self-consistent Calculation

     iteration #  1     ecut=    40.00 Ry     beta= 0.10
     Davidson diagonalization with overlap
     ethr =  1.00E-06,  avg # of iterations =  6.0

     negative rho (up, down):  5.933E-03 0.000E+00

     Laue-RISM Calculation

     convergence threshold    = 2.718E-05
     iter. #     1  RMS(g-h-1)= 4.496E-04  nbox=  0
     iter. #    11  RMS(g-h-1)= 8.690E-05  nbox= 10
     iter. #    21  RMS(g-h-1)= 5.459E-05  nbox= 10
     iter. #    31  RMS(g-h-1)= 4.509E-05  nbox= 10
     iter. #    41  RMS(g-h-1)= 2.766E-05  nbox= 10
     iter. #    44  RMS(g-h-1)= 2.609E-05  nbox= 10

     End of Laue-RISM calculation


     convergence has been achieved in    44 iterations


     solvent charge   -0.00610, renormalised to    0.00000

     Total number of solvent (in expand-cell)
     H2O         1126.776043
     K+            20.417900
     OH-           20.415196

     Total charge of solvent (in expand-cell)
     H2O            0.003507 e
     K+            20.417900 e
     OH-          -20.427505 e
     Total         -0.006098 e

     Chemical potential of solvation (in expand-cell)
     H2O        GaussFluct  -0.816082E+01 kcal/mol
     K+         GaussFluct  -0.111650E+01 kcal/mol
     OH-        GaussFluct  -0.150800E+01 kcal/mol
     Total      GaussFluct  -0.107853E+02 kcal/mol


     total cpu time spent up to now is     1500.9 secs

     total energy              =     -34.66108434 Ry
     estimated scf accuracy    <       0.01777708 Ry

     iteration #  2     ecut=    40.00 Ry     beta= 0.10
     Davidson diagonalization with overlap
     ethr =  2.22E-04,  avg # of iterations =  1.0

     negative rho (up, down):  7.313E-03 0.000E+00

     Laue-RISM Calculation

     convergence threshold    = 1.796E-05
     iter. #     1  RMS(g-h-1)= 1.556E-03  nbox=  0
     iter. #    11  RMS(g-h-1)= 1.840E-04  nbox= 10
     iter. #    21  RMS(g-h-1)= 7.843E-05  nbox= 10
     iter. #    31  RMS(g-h-1)= 5.046E-05  nbox= 10
     iter. #    41  RMS(g-h-1)= 3.503E-05  nbox= 10
     iter. #    51  RMS(g-h-1)= 2.500E-05  nbox= 10
     iter. #    61  RMS(g-h-1)= 2.109E-05  nbox= 10
     iter. #    67  RMS(g-h-1)= 1.796E-05  nbox=  4

     End of Laue-RISM calculation


     convergence has been achieved in    67 iterations


     solvent charge   -0.00329, renormalised to    0.00000

     Total number of solvent (in expand-cell)
     H2O         1126.731780
     K+            20.407064
     OH-           20.404122

     Total charge of solvent (in expand-cell)
     H2O            0.004305 e
     K+            20.407064 e
     OH-          -20.414663 e
     Total         -0.003294 e

     Chemical potential of solvation (in expand-cell)
     H2O        GaussFluct  -0.742244E+01 kcal/mol
     K+         GaussFluct  -0.105421E+01 kcal/mol
     OH-        GaussFluct  -0.125813E+01 kcal/mol
     Total      GaussFluct  -0.973479E+01 kcal/mol


     total cpu time spent up to now is     1544.8 secs

     total energy              =     -34.65620177 Ry
     estimated scf accuracy    <       0.01119065 Ry

     iteration #  3     ecut=    40.00 Ry     beta= 0.10
     Davidson diagonalization with overlap
     ethr =  1.40E-04,  avg # of iterations =  2.0

     negative rho (up, down):  6.019E-03 0.000E+00

     Laue-RISM Calculation

     convergence threshold    = 3.005E-06
     iter. #     1  RMS(g-h-1)= 1.372E-04  nbox=  0
     iter. #    11  RMS(g-h-1)= 2.268E-05  nbox= 10
     iter. #    21  RMS(g-h-1)= 1.637E-05  nbox= 10
     iter. #    31  RMS(g-h-1)= 1.447E-05  nbox= 10
     iter. #    41  RMS(g-h-1)= 1.291E-05  nbox=  5
     iter. #    51  RMS(g-h-1)= 9.203E-06  nbox= 10
     iter. #    61  RMS(g-h-1)= 7.602E-06  nbox= 10
     iter. #    71  RMS(g-h-1)= 5.697E-06  nbox= 10
     iter. #    81  RMS(g-h-1)= 5.005E-06  nbox=  2
     iter. #    91  RMS(g-h-1)= 4.693E-06  nbox= 10
     iter. #   101  RMS(g-h-1)= 4.517E-06  nbox=  6
     iter. #   111  RMS(g-h-1)= 4.242E-06  nbox= 10
     iter. #   121  RMS(g-h-1)= 3.927E-06  nbox= 10
     iter. #   131  RMS(g-h-1)= 3.689E-06  nbox=  4
     iter. #   141  RMS(g-h-1)= 3.575E-06  nbox= 10
     iter. #   151  RMS(g-h-1)= 3.505E-06  nbox=  8
     iter. #   161  RMS(g-h-1)= 3.453E-06  nbox=  2
     iter. #   171  RMS(g-h-1)= 3.364E-06  nbox= 10
     iter. #   181  RMS(g-h-1)= 3.270E-06  nbox=  6
     iter. #   191  RMS(g-h-1)= 3.072E-06  nbox= 10
     iter. #   200  RMS(g-h-1)= 2.999E-06  nbox=  9

     End of Laue-RISM calculation


     convergence has been achieved in   200 iterations


     solvent charge    0.00496, renormalised to    0.00000

     Total number of solvent (in expand-cell)
     H2O         1126.744027
     K+            20.408629
     OH-           20.408525

     Total charge of solvent (in expand-cell)
     H2O            0.004852 e
     K+            20.408629 e
     OH-          -20.408523 e
     Total          0.004958 e

     Chemical potential of solvation (in expand-cell)
     H2O        GaussFluct  -0.754439E+01 kcal/mol
     K+         GaussFluct  -0.105166E+01 kcal/mol
     OH-        GaussFluct  -0.126066E+01 kcal/mol
     Total      GaussFluct  -0.985672E+01 kcal/mol


     total cpu time spent up to now is     1666.0 secs

     total energy              =     -34.65845641 Ry
     estimated scf accuracy    <       0.00151647 Ry

     iteration #  4     ecut=    40.00 Ry     beta= 0.10
     Davidson diagonalization with overlap
     ethr =  1.90E-05,  avg # of iterations =  1.0

     negative rho (up, down):  9.017E-03 0.000E+00

     Laue-RISM Calculation

     convergence threshold    = 4.574E-06
     iter. #     1  RMS(g-h-1)= 8.105E-04  nbox=  0
     iter. #    11  RMS(g-h-1)= 1.026E-04  nbox= 10
     iter. #    21  RMS(g-h-1)= 4.189E-05  nbox= 10
     iter. #    31  RMS(g-h-1)= 2.537E-05  nbox= 10
     iter. #    41  RMS(g-h-1)= 1.851E-05  nbox= 10
     iter. #    51  RMS(g-h-1)= 1.596E-05  nbox= 10
     iter. #    61  RMS(g-h-1)= 1.250E-05  nbox= 10
     iter. #    71  RMS(g-h-1)= 1.074E-05  nbox= 10
     iter. #    81  RMS(g-h-1)= 7.114E-06  nbox= 10
     iter. #    91  RMS(g-h-1)= 5.899E-06  nbox= 10
     iter. #   101  RMS(g-h-1)= 5.257E-06  nbox=  2
     iter. #   107  RMS(g-h-1)= 4.395E-06  nbox=  8

     End of Laue-RISM calculation


     convergence has been achieved in   107 iterations


     solvent charge    0.00554, renormalised to    0.00000

     Total number of solvent (in expand-cell)
     H2O         1126.692903
     K+            20.399940
     OH-           20.399687

     Total charge of solvent (in expand-cell)
     H2O            0.005192 e
     K+            20.399940 e
     OH-          -20.399594 e
     Total          0.005538 e

     Chemical potential of solvation (in expand-cell)
     H2O        GaussFluct  -0.679914E+01 kcal/mol
     K+         GaussFluct  -0.996598E+00 kcal/mol
     OH-        GaussFluct  -0.105134E+01 kcal/mol
     Total      GaussFluct  -0.884708E+01 kcal/mol


     total cpu time spent up to now is     1733.6 secs

     total energy              =     -34.65819904 Ry
     estimated scf accuracy    <       0.00242503 Ry

     iteration #  5     ecut=    40.00 Ry     beta= 0.10
     Davidson diagonalization with overlap
     ethr =  1.90E-05,  avg # of iterations =  2.0

     negative rho (up, down):  1.019E-02 0.000E+00

     Laue-RISM Calculation

     convergence threshold    = 2.122E-06
     iter. #     1  RMS(g-h-1)= 5.859E-04  nbox=  0
     iter. #    11  RMS(g-h-1)= 6.686E-05  nbox= 10
     iter. #    21  RMS(g-h-1)= 3.092E-05  nbox= 10
     iter. #    31  RMS(g-h-1)= 1.726E-05  nbox= 10
     iter. #    41  RMS(g-h-1)= 1.365E-05  nbox= 10
     iter. #    51  RMS(g-h-1)= 1.051E-05  nbox= 10
     iter. #    61  RMS(g-h-1)= 9.097E-06  nbox= 10
     iter. #    71  RMS(g-h-1)= 7.281E-06  nbox=  8
     iter. #    81  RMS(g-h-1)= 5.624E-06  nbox=  2
     iter. #    91  RMS(g-h-1)= 4.258E-06  nbox= 10
     iter. #   101  RMS(g-h-1)= 3.373E-06  nbox= 10
     iter. #   111  RMS(g-h-1)= 3.168E-06  nbox=  3
     iter. #   121  RMS(g-h-1)= 2.949E-06  nbox= 10
     iter. #   131  RMS(g-h-1)= 2.860E-06  nbox=  7
     iter. #   141  RMS(g-h-1)= 2.761E-06  nbox= 10
     iter. #   151  RMS(g-h-1)= 2.610E-06  nbox= 10
     iter. #   161  RMS(g-h-1)= 2.511E-06  nbox=  5
     iter. #   171  RMS(g-h-1)= 2.351E-06  nbox= 10
     iter. #   181  RMS(g-h-1)= 2.248E-06  nbox=  9
     iter. #   191  RMS(g-h-1)= 2.172E-06  nbox=  3
     iter. #   197  RMS(g-h-1)= 2.111E-06  nbox=  9

     End of Laue-RISM calculation


     convergence has been achieved in   197 iterations


     solvent charge    0.00562, renormalised to    0.00000

     Total number of solvent (in expand-cell)
     H2O         1126.667003
     K+            20.396175
     OH-           20.396143

     Total charge of solvent (in expand-cell)
     H2O            0.005508 e
     K+            20.396175 e
     OH-          -20.396062 e
     Total          0.005621 e

     Chemical potential of solvation (in expand-cell)
     H2O        GaussFluct  -0.644157E+01 kcal/mol
     K+         GaussFluct  -0.974071E+00 kcal/mol
     OH-        GaussFluct  -0.956899E+00 kcal/mol
     Total      GaussFluct  -0.837254E+01 kcal/mol


     total cpu time spent up to now is     1855.8 secs

     total energy              =     -34.65772572 Ry
     estimated scf accuracy    <       0.00102762 Ry

     iteration #  6     ecut=    40.00 Ry     beta= 0.10
     Davidson diagonalization with overlap
     ethr =  1.28E-05,  avg # of iterations =  2.0

     negative rho (up, down):  9.310E-03 0.000E+00

     Laue-RISM Calculation

     convergence threshold    = 1.000E-06
     iter. #     1  RMS(g-h-1)= 4.902E-05  nbox=  0
     iter. #    11  RMS(g-h-1)= 6.102E-06  nbox= 10
     iter. #    21  RMS(g-h-1)= 2.939E-06  nbox= 10
     iter. #    31  RMS(g-h-1)= 2.582E-06  nbox= 10
     iter. #    41  RMS(g-h-1)= 2.238E-06  nbox=  5
     iter. #    51  RMS(g-h-1)= 2.111E-06  nbox= 10
     iter. #    61  RMS(g-h-1)= 1.994E-06  nbox=  9
     iter. #    71  RMS(g-h-1)= 1.969E-06  nbox=  3
     iter. #    81  RMS(g-h-1)= 1.920E-06  nbox= 10
     iter. #    91  RMS(g-h-1)= 1.882E-06  nbox=  7
     iter. #   101  RMS(g-h-1)= 1.853E-06  nbox= 10
     iter. #   111  RMS(g-h-1)= 1.777E-06  nbox= 10
     iter. #   121  RMS(g-h-1)= 1.736E-06  nbox=  5
     iter. #   131  RMS(g-h-1)= 1.712E-06  nbox= 10
     iter. #   141  RMS(g-h-1)= 1.682E-06  nbox=  9
     iter. #   151  RMS(g-h-1)= 1.649E-06  nbox=  3
     iter. #   161  RMS(g-h-1)= 1.616E-06  nbox= 10
     iter. #   171  RMS(g-h-1)= 1.585E-06  nbox=  7
     iter. #   181  RMS(g-h-1)= 1.541E-06  nbox= 10
     iter. #   191  RMS(g-h-1)= 1.478E-06  nbox= 10
     iter. #   201  RMS(g-h-1)= 1.442E-06  nbox=  5
     iter. #   211  RMS(g-h-1)= 1.405E-06  nbox= 10
     iter. #   221  RMS(g-h-1)= 1.389E-06  nbox=  9
     iter. #   231  RMS(g-h-1)= 1.373E-06  nbox=  3
     iter. #   241  RMS(g-h-1)= 1.348E-06  nbox= 10
     iter. #   251  RMS(g-h-1)= 1.332E-06  nbox=  7
     iter. #   261  RMS(g-h-1)= 1.316E-06  nbox= 10
     iter. #   271  RMS(g-h-1)= 1.298E-06  nbox= 10
     iter. #   281  RMS(g-h-1)= 1.275E-06  nbox=  5
     iter. #   291  RMS(g-h-1)= 1.234E-06  nbox= 10
     iter. #   301  RMS(g-h-1)= 1.199E-06  nbox=  9
     iter. #   311  RMS(g-h-1)= 1.177E-06  nbox=  3
     iter. #   321  RMS(g-h-1)= 1.149E-06  nbox= 10
     iter. #   331  RMS(g-h-1)= 1.114E-06  nbox=  7
     iter. #   341  RMS(g-h-1)= 1.083E-06  nbox= 10
     iter. #   351  RMS(g-h-1)= 1.067E-06  nbox= 10
     iter. #   361  RMS(g-h-1)= 1.031E-06  nbox=  5
     iter. #   367  RMS(g-h-1)= 9.907E-07  nbox= 10

     End of Laue-RISM calculation


     convergence has been achieved in   367 iterations


     solvent charge    0.00556, renormalised to    0.00000

     Total number of solvent (in expand-cell)
     H2O         1126.669348
     K+            20.396633
     OH-           20.396554

     Total charge of solvent (in expand-cell)
     H2O            0.005492 e
     K+            20.396633 e
     OH-          -20.396561 e
     Total          0.005565 e

     Chemical potential of solvation (in expand-cell)
     H2O        GaussFluct  -0.647361E+01 kcal/mol
     K+         GaussFluct  -0.978939E+00 kcal/mol
     OH-        GaussFluct  -0.961986E+00 kcal/mol
     Total      GaussFluct  -0.841454E+01 kcal/mol


     total cpu time spent up to now is     2074.2 secs

     total energy              =     -34.65806726 Ry
     estimated scf accuracy    <       0.00013804 Ry

     iteration #  7     ecut=    40.00 Ry     beta= 0.10
     Davidson diagonalization with overlap
     ethr =  1.73E-06,  avg # of iterations =  2.0

     negative rho (up, down):  9.067E-03 0.000E+00

     Laue-RISM Calculation

     convergence threshold    = 1.000E-06
     iter. #     1  RMS(g-h-1)= 1.351E-04  nbox=  0
     iter. #    11  RMS(g-h-1)= 1.366E-05  nbox= 10
     iter. #    21  RMS(g-h-1)= 4.887E-06  nbox= 10
     iter. #    31  RMS(g-h-1)= 3.226E-06  nbox= 10
     iter. #    41  RMS(g-h-1)= 2.443E-06  nbox= 10
     iter. #    51  RMS(g-h-1)= 1.843E-06  nbox= 10
     iter. #    61  RMS(g-h-1)= 1.639E-06  nbox= 10
     iter. #    71  RMS(g-h-1)= 1.233E-06  nbox= 10
     iter. #    81  RMS(g-h-1)= 1.109E-06  nbox= 10
     iter. #    89  RMS(g-h-1)= 9.942E-07  nbox=  8

     End of Laue-RISM calculation


     convergence has been achieved in    89 iterations


     solvent charge    0.00529, renormalised to    0.00000

     Total number of solvent (in expand-cell)
     H2O         1126.673435
     K+            20.397132
     OH-           20.397123

     Total charge of solvent (in expand-cell)
     H2O            0.005436 e
     K+            20.397132 e
     OH-          -20.397282 e
     Total          0.005286 e

     Chemical potential of solvation (in expand-cell)
     H2O        GaussFluct  -0.652299E+01 kcal/mol
     K+         GaussFluct  -0.992587E+00 kcal/mol
     OH-        GaussFluct  -0.960850E+00 kcal/mol
     Total      GaussFluct  -0.847643E+01 kcal/mol


     total cpu time spent up to now is     2130.4 secs

     total energy              =     -34.65801259 Ry
     estimated scf accuracy    <       0.00017956 Ry

     iteration #  8     ecut=    40.00 Ry     beta= 0.10
     Davidson diagonalization with overlap
     ethr =  1.73E-06,  avg # of iterations =  2.0

     negative rho (up, down):  8.484E-03 0.000E+00

     Laue-RISM Calculation

     convergence threshold    = 1.000E-06
     iter. #     1  RMS(g-h-1)= 4.204E-05  nbox=  0
     iter. #    11  RMS(g-h-1)= 4.636E-06  nbox= 10
     iter. #    21  RMS(g-h-1)= 1.873E-06  nbox= 10
     iter. #    31  RMS(g-h-1)= 1.490E-06  nbox= 10
     iter. #    41  RMS(g-h-1)= 1.275E-06  nbox= 10
     iter. #    51  RMS(g-h-1)= 1.084E-06  nbox=  9
     iter. #    61  RMS(g-h-1)= 1.014E-06  nbox=  3
     iter. #    64  RMS(g-h-1)= 9.942E-07  nbox=  6

     End of Laue-RISM calculation


     convergence has been achieved in    64 iterations


     solvent charge    0.00519, renormalised to   -0.00000

     Total number of solvent (in expand-cell)
     H2O         1126.675217
     K+            20.397417
     OH-           20.397419

     Total charge of solvent (in expand-cell)
     H2O            0.005400 e
     K+            20.397417 e
     OH-          -20.397628 e
     Total          0.005189 e

     Chemical potential of solvation (in expand-cell)
     H2O        GaussFluct  -0.654824E+01 kcal/mol
     K+         GaussFluct  -0.996375E+00 kcal/mol
     OH-        GaussFluct  -0.964852E+00 kcal/mol
     Total      GaussFluct  -0.850947E+01 kcal/mol


     total cpu time spent up to now is     2171.9 secs

     total energy              =     -34.65802198 Ry
     estimated scf accuracy    <       0.00002400 Ry

     iteration #  9     ecut=    40.00 Ry     beta= 0.10
     Davidson diagonalization with overlap
     ethr =  3.00E-07,  avg # of iterations =  2.0

     negative rho (up, down):  7.980E-03 0.000E+00

     Laue-RISM Calculation

     convergence threshold    = 1.000E-06
     iter. #     1  RMS(g-h-1)= 1.078E-05  nbox=  0
     iter. #    11  RMS(g-h-1)= 1.559E-06  nbox= 10
     iter. #    21  RMS(g-h-1)= 1.039E-06  nbox= 10
     iter. #    28  RMS(g-h-1)= 9.998E-07  nbox= 10

     End of Laue-RISM calculation


     convergence has been achieved in    28 iterations


     solvent charge    0.00543, renormalised to   -0.00000

     Total number of solvent (in expand-cell)
     H2O         1126.675782
     K+            20.397592
     OH-           20.397455

     Total charge of solvent (in expand-cell)
     H2O            0.005398 e
     K+            20.397592 e
     OH-          -20.397563 e
     Total          0.005427 e

     Chemical potential of solvation (in expand-cell)
     H2O        GaussFluct  -0.655521E+01 kcal/mol
     K+         GaussFluct  -0.998270E+00 kcal/mol
     OH-        GaussFluct  -0.965436E+00 kcal/mol
     Total      GaussFluct  -0.851892E+01 kcal/mol


     total cpu time spent up to now is     2192.5 secs

     total energy              =     -34.65802561 Ry
     estimated scf accuracy    <       0.00000159 Ry

     iteration # 10     ecut=    40.00 Ry     beta= 0.10
     Davidson diagonalization with overlap
     ethr =  1.98E-08,  avg # of iterations =  2.0

     negative rho (up, down):  7.565E-03 0.000E+00

     Laue-RISM Calculation

     convergence threshold    = 1.000E-06
     iter. #     1  RMS(g-h-1)= 1.581E-05  nbox=  0
     iter. #    11  RMS(g-h-1)= 2.128E-06  nbox= 10
     iter. #    21  RMS(g-h-1)= 1.275E-06  nbox= 10
     iter. #    31  RMS(g-h-1)= 1.087E-06  nbox= 10
     iter. #    41  RMS(g-h-1)= 1.038E-06  nbox=  2
     iter. #    45  RMS(g-h-1)= 9.954E-07  nbox=  6

     End of Laue-RISM calculation


     convergence has been achieved in    45 iterations


     solvent charge    0.00531, renormalised to    0.00000

     Total number of solvent (in expand-cell)
     H2O         1126.676930
     K+            20.397665
     OH-           20.397645

     Total charge of solvent (in expand-cell)
     H2O            0.005379 e
     K+            20.397665 e
     OH-          -20.397735 e
     Total          0.005310 e

     Chemical potential of solvation (in expand-cell)
     H2O        GaussFluct  -0.656911E+01 kcal/mol
     K+         GaussFluct  -0.100033E+01 kcal/mol
     OH-        GaussFluct  -0.966854E+00 kcal/mol
     Total      GaussFluct  -0.853629E+01 kcal/mol


     total cpu time spent up to now is     2222.8 secs

     total energy              =     -34.65802551 Ry
     estimated scf accuracy    <       0.00000102 Ry

     iteration # 11     ecut=    40.00 Ry     beta= 0.10
     Davidson diagonalization with overlap
     ethr =  1.27E-08,  avg # of iterations =  2.0

     negative rho (up, down):  6.604E-03 0.000E+00

     Laue-RISM Calculation

     convergence threshold    = 1.000E-06
     iter. #     1  RMS(g-h-1)= 1.180E-05  nbox=  0
     iter. #    11  RMS(g-h-1)= 1.469E-06  nbox= 10
     iter. #    21  RMS(g-h-1)= 1.077E-06  nbox= 10
     iter. #    31  RMS(g-h-1)= 1.019E-06  nbox= 10
     iter. #    37  RMS(g-h-1)= 9.746E-07  nbox=  5

     End of Laue-RISM calculation


     convergence has been achieved in    37 iterations


     solvent charge    0.00520, renormalised to    0.00000

     Total number of solvent (in expand-cell)
     H2O         1126.677073
     K+            20.397643
     OH-           20.397680

     Total charge of solvent (in expand-cell)
     H2O            0.005371 e
     K+            20.397643 e
     OH-          -20.397816 e
     Total          0.005198 e

     Chemical potential of solvation (in expand-cell)
     H2O        GaussFluct  -0.657094E+01 kcal/mol
     K+         GaussFluct  -0.100058E+01 kcal/mol
     OH-        GaussFluct  -0.966564E+00 kcal/mol
     Total      GaussFluct  -0.853808E+01 kcal/mol


     total cpu time spent up to now is     2248.4 secs

     End of self-consistent calculation

          k = 0.0000 0.0000 0.0000 (115195 PWs)   bands (ev):

   -25.8908 -11.9140 -10.5364  -7.5104  -0.6935  -0.1972   0.0661   0.0719
     0.0804   0.1067   0.1107   0.2694   0.3922   0.4036   0.4172   0.4684
     0.4705   0.4863   0.4865   0.4873

     the Fermi energy is    -5.4269 ev

!    total energy              =     -34.65801543 Ry
     estimated scf accuracy    <       0.00000012 Ry
     smearing contrib. (-TS)   =      -0.00000000 Ry
     internal energy E=F+TS    =     -34.65801543 Ry

     The total energy is F=E-TS. E is the sum of the following terms:
     one-electron contribution =     -69.87805785 Ry
     hartree contribution      =      36.39669088 Ry
     xc contribution           =      -8.73861912 Ry
     ewald contribution        =       7.58920145 Ry
     solvation energy (RISM)   =      -0.02723079 Ry

     convergence has been achieved in  11 iterations

     negative rho (up, down):  6.604E-03 0.000E+00

     Forces acting on atoms (cartesian axes, Ry/au):

     atom    1 type  1   force =    -0.04102423   -0.04102423   -0.00001745
     atom    2 type  2   force =     0.02051915    0.02051915    0.12396224
     atom    3 type  2   force =     0.02050508    0.02050508   -0.12394517

     Total force =     0.189151     Total SCF correction =     0.000132
     Energy error            =      2.5E-02 Ry
     Gradient error          =      1.2E-01 Ry/Bohr

     number of scf cycles    =   2
     number of bfgs steps    =   1

     energy             old  =     -34.6327476366 Ry
     energy             new  =     -34.6580154263 Ry

     CASE: energy            _new < energy            _old

     new trust radius        =       0.1599256228 bohr
     new conv_thr            =       0.0000010000 Ry


ATOMIC_POSITIONS (angstrom)
O                0.0860463143        0.0860463143        0.0000043048
H                0.5569802635        0.5569802635        0.7113428035
H                0.5569734223        0.5569734223       -0.7113338589



     Writing config-only to output data dir output/opt.save/ :
     XML data file
     NEW-OLD atomic charge density approx. for the potential

     negative rho (up, down):  6.466E-03 0.000E+00

     Laue-RISM Calculation

     convergence threshold    = 1.000E-04
     iter. #     1  RMS(g-h-1)= 3.360E-02  nbox=  0
     iter. #    11  RMS(g-h-1)= 1.680E-03  nbox= 10
     iter. #    21  RMS(g-h-1)= 7.082E-04  nbox= 10
     iter. #    31  RMS(g-h-1)= 3.434E-04  nbox= 10
     iter. #    41  RMS(g-h-1)= 1.707E-04  nbox= 10
     iter. #    51  RMS(g-h-1)= 1.101E-04  nbox= 10
     iter. #    54  RMS(g-h-1)= 9.505E-05  nbox= 10

     End of Laue-RISM calculation


     convergence has been achieved in    54 iterations


     solvent charge    0.00690, renormalised to    0.00000

     Total number of solvent (in expand-cell)
     H2O         1126.652402
     K+            20.394767
     OH-           20.392758

     Total charge of solvent (in expand-cell)
     H2O            0.005567 e
     K+            20.394767 e
     OH-          -20.393433 e
     Total          0.006902 e

     Chemical potential of solvation (in expand-cell)
     H2O        GaussFluct  -0.630301E+01 kcal/mol
     K+         GaussFluct  -0.102241E+01 kcal/mol
     OH-        GaussFluct  -0.118169E+01 kcal/mol
     Total      GaussFluct  -0.850711E+01 kcal/mol


     total cpu time spent up to now is     2285.3 secs

     Self-consistent Calculation

     iteration #  1     ecut=    40.00 Ry     beta= 0.10
     Davidson diagonalization with overlap
     ethr =  1.00E-06,  avg # of iterations =  6.0

     negative rho (up, down):  6.359E-03 0.000E+00

     Laue-RISM Calculation

     convergence threshold    = 4.154E-06
     iter. #     1  RMS(g-h-1)= 1.872E-04  nbox=  0
     iter. #    11  RMS(g-h-1)= 7.223E-05  nbox= 10
     iter. #    21  RMS(g-h-1)= 4.330E-05  nbox= 10
     iter. #    31  RMS(g-h-1)= 2.942E-05  nbox= 10
     iter. #    41  RMS(g-h-1)= 2.096E-05  nbox= 10
     iter. #    51  RMS(g-h-1)= 1.737E-05  nbox= 10
     iter. #    61  RMS(g-h-1)= 1.473E-05  nbox= 10
     iter. #    71  RMS(g-h-1)= 1.352E-05  nbox=  2
     iter. #    81  RMS(g-h-1)= 9.870E-06  nbox= 10
     iter. #    91  RMS(g-h-1)= 7.586E-06  nbox= 10
     iter. #   101  RMS(g-h-1)= 6.689E-06  nbox= 10
     iter. #   111  RMS(g-h-1)= 5.894E-06  nbox=  5
     iter. #   121  RMS(g-h-1)= 4.904E-06  nbox= 10
     iter. #   131  RMS(g-h-1)= 4.384E-06  nbox=  9
     iter. #   135  RMS(g-h-1)= 4.135E-06  nbox= 10

     End of Laue-RISM calculation


     convergence has been achieved in   135 iterations


     solvent charge    0.00535, renormalised to    0.00000

     Total number of solvent (in expand-cell)
     H2O         1126.665112
     K+            20.395674
     OH-           20.395765

     Total charge of solvent (in expand-cell)
     H2O            0.005359 e
     K+            20.395674 e
     OH-          -20.395686 e
     Total          0.005347 e

     Chemical potential of solvation (in expand-cell)
     H2O        GaussFluct  -0.645381E+01 kcal/mol
     K+         GaussFluct  -0.103962E+01 kcal/mol
     OH-        GaussFluct  -0.869736E+00 kcal/mol
     Total      GaussFluct  -0.836317E+01 kcal/mol


     total cpu time spent up to now is     2371.2 secs

     total energy              =     -34.68112926 Ry
     estimated scf accuracy    <       0.00217762 Ry

     iteration #  2     ecut=    40.00 Ry     beta= 0.10
     Davidson diagonalization with overlap
     ethr =  2.72E-05,  avg # of iterations =  1.0

     negative rho (up, down):  6.474E-03 0.000E+00

     Laue-RISM Calculation

     convergence threshold    = 2.830E-06
     iter. #     1  RMS(g-h-1)= 5.347E-04  nbox=  0
     iter. #    11  RMS(g-h-1)= 5.632E-05  nbox= 10
     iter. #    21  RMS(g-h-1)= 2.491E-05  nbox= 10
     iter. #    31  RMS(g-h-1)= 1.360E-05  nbox= 10
     iter. #    41  RMS(g-h-1)= 1.114E-05  nbox= 10
     iter. #    51  RMS(g-h-1)= 6.496E-06  nbox=  9
     iter. #    61  RMS(g-h-1)= 4.973E-06  nbox= 10
     iter. #    71  RMS(g-h-1)= 4.568E-06  nbox=  2
     iter. #    81  RMS(g-h-1)= 4.068E-06  nbox= 10
     iter. #    91  RMS(g-h-1)= 3.720E-06  nbox=  6
     iter. #   101  RMS(g-h-1)= 3.454E-06  nbox= 10
     iter. #   111  RMS(g-h-1)= 3.310E-06  nbox= 10
     iter. #   121  RMS(g-h-1)= 3.240E-06  nbox=  4
     iter. #   131  RMS(g-h-1)= 3.096E-06  nbox= 10
     iter. #   141  RMS(g-h-1)= 2.976E-06  nbox=  8
     iter. #   151  RMS(g-h-1)= 2.842E-06  nbox=  2
     iter. #   152  RMS(g-h-1)= 2.824E-06  nbox=  3

     End of Laue-RISM calculation


     convergence has been achieved in   152 iterations


     solvent charge    0.00512, renormalised to    0.00000

     Total number of solvent (in expand-cell)
     H2O         1126.661851
     K+            20.394860
     OH-           20.394891

     Total charge of solvent (in expand-cell)
     H2O            0.005270 e
     K+            20.394860 e
     OH-          -20.395006 e
     Total          0.005125 e

     Chemical potential of solvation (in expand-cell)
     H2O        GaussFluct  -0.634433E+01 kcal/mol
     K+         GaussFluct  -0.106650E+01 kcal/mol
     OH-        GaussFluct  -0.779560E+00 kcal/mol
     Total      GaussFluct  -0.819039E+01 kcal/mol


     total cpu time spent up to now is     2463.3 secs

     total energy              =     -34.68138436 Ry
     estimated scf accuracy    <       0.00141785 Ry

     iteration #  3     ecut=    40.00 Ry     beta= 0.10
     Davidson diagonalization with overlap
     ethr =  1.77E-05,  avg # of iterations =  2.0

     negative rho (up, down):  6.798E-03 0.000E+00

     Laue-RISM Calculation

     convergence threshold    = 1.000E-06
     iter. #     1  RMS(g-h-1)= 3.755E-04  nbox=  0
     iter. #    11  RMS(g-h-1)= 3.977E-05  nbox= 10
     iter. #    21  RMS(g-h-1)= 1.981E-05  nbox= 10
     iter. #    31  RMS(g-h-1)= 1.107E-05  nbox= 10
     iter. #    41  RMS(g-h-1)= 9.474E-06  nbox= 10
     iter. #    51  RMS(g-h-1)= 5.592E-06  nbox=  6
     iter. #    61  RMS(g-h-1)= 3.823E-06  nbox= 10
     iter. #    71  RMS(g-h-1)= 3.417E-06  nbox= 10
     iter. #    81  RMS(g-h-1)= 3.011E-06  nbox=  7
     iter. #    91  RMS(g-h-1)= 2.842E-06  nbox= 10
     iter. #   101  RMS(g-h-1)= 2.711E-06  nbox= 10
     iter. #   111  RMS(g-h-1)= 2.646E-06  nbox=  5
     iter. #   121  RMS(g-h-1)= 2.506E-06  nbox= 10
     iter. #   131  RMS(g-h-1)= 2.435E-06  nbox=  9
     iter. #   141  RMS(g-h-1)= 2.324E-06  nbox=  3
     iter. #   151  RMS(g-h-1)= 2.242E-06  nbox= 10
     iter. #   161  RMS(g-h-1)= 2.175E-06  nbox=  7
     iter. #   171  RMS(g-h-1)= 2.147E-06  nbox= 10
     iter. #   181  RMS(g-h-1)= 2.118E-06  nbox= 10
     iter. #   191  RMS(g-h-1)= 2.032E-06  nbox=  5
     iter. #   201  RMS(g-h-1)= 1.974E-06  nbox= 10
     iter. #   211  RMS(g-h-1)= 1.921E-06  nbox=  9
     iter. #   221  RMS(g-h-1)= 1.873E-06  nbox=  3
     iter. #   231  RMS(g-h-1)= 1.813E-06  nbox= 10
     iter. #   241  RMS(g-h-1)= 1.793E-06  nbox=  7
     iter. #   251  RMS(g-h-1)= 1.773E-06  nbox= 10
     iter. #   261  RMS(g-h-1)= 1.747E-06  nbox= 10
     iter. #   271  RMS(g-h-1)= 1.715E-06  nbox=  5
     iter. #   281  RMS(g-h-1)= 1.660E-06  nbox= 10
     iter. #   291  RMS(g-h-1)= 1.618E-06  nbox=  9
     iter. #   301  RMS(g-h-1)= 1.593E-06  nbox=  3
     iter. #   311  RMS(g-h-1)= 1.559E-06  nbox= 10
     iter. #   321  RMS(g-h-1)= 1.549E-06  nbox=  7
     iter. #   331  RMS(g-h-1)= 1.520E-06  nbox= 10
     iter. #   341  RMS(g-h-1)= 1.479E-06  nbox= 10
     iter. #   351  RMS(g-h-1)= 1.444E-06  nbox=  5
     iter. #   361  RMS(g-h-1)= 1.393E-06  nbox= 10
     iter. #   371  RMS(g-h-1)= 1.370E-06  nbox=  9
     iter. #   381  RMS(g-h-1)= 1.357E-06  nbox=  3
     iter. #   391  RMS(g-h-1)= 1.340E-06  nbox= 10
     iter. #   401  RMS(g-h-1)= 1.327E-06  nbox=  7
     iter. #   411  RMS(g-h-1)= 1.312E-06  nbox= 10
     iter. #   421  RMS(g-h-1)= 1.286E-06  nbox= 10
     iter. #   431  RMS(g-h-1)= 1.267E-06  nbox=  5
     iter. #   441  RMS(g-h-1)= 1.222E-06  nbox= 10
     iter. #   451  RMS(g-h-1)= 1.170E-06  nbox=  9
     iter. #   461  RMS(g-h-1)= 1.127E-06  nbox=  3
     iter. #   471  RMS(g-h-1)= 1.088E-06  nbox= 10
     iter. #   481  RMS(g-h-1)= 1.070E-06  nbox=  7
     iter. #   491  RMS(g-h-1)= 1.046E-06  nbox= 10
     iter. #   501  RMS(g-h-1)= 1.042E-06  nbox= 10
     iter. #   511  RMS(g-h-1)= 1.021E-06  nbox=  5
     iter. #   521  RMS(g-h-1)= 1.009E-06  nbox= 10
     iter. #   526  RMS(g-h-1)= 9.979E-07  nbox=  4

     End of Laue-RISM calculation


     convergence has been achieved in   526 iterations


     solvent charge    0.00514, renormalised to    0.00000

     Total number of solvent (in expand-cell)
     H2O         1126.664455
     K+            20.394823
     OH-           20.394802

     Total charge of solvent (in expand-cell)
     H2O            0.005125 e
     K+            20.394823 e
     OH-          -20.394806 e
     Total          0.005142 e

     Chemical potential of solvation (in expand-cell)
     H2O        GaussFluct  -0.631724E+01 kcal/mol
     K+         GaussFluct  -0.109262E+01 kcal/mol
     OH-        GaussFluct  -0.723055E+00 kcal/mol
     Total      GaussFluct  -0.813292E+01 kcal/mol


     total cpu time spent up to now is     2773.5 secs

     total energy              =     -34.68168853 Ry
     estimated scf accuracy    <       0.00037265 Ry

     iteration #  4     ecut=    40.00 Ry     beta= 0.10
     Davidson diagonalization with overlap
     ethr =  4.66E-06,  avg # of iterations =  2.0

     negative rho (up, down):  7.394E-03 0.000E+00

     Laue-RISM Calculation

     convergence threshold    = 1.000E-06
     iter. #     1  RMS(g-h-1)= 4.244E-04  nbox=  0
     iter. #    11  RMS(g-h-1)= 4.718E-05  nbox= 10
     iter. #    21  RMS(g-h-1)= 2.057E-05  nbox= 10
     iter. #    31  RMS(g-h-1)= 1.123E-05  nbox= 10
     iter. #    41  RMS(g-h-1)= 8.432E-06  nbox= 10
     iter. #    51  RMS(g-h-1)= 6.021E-06  nbox= 10
     iter. #    61  RMS(g-h-1)= 5.393E-06  nbox=  4
     iter. #    71  RMS(g-h-1)= 6.195E-06  nbox= 10
     iter. #    81  RMS(g-h-1)= 4.588E-06  nbox= 10
     iter. #    91  RMS(g-h-1)= 4.018E-06  nbox= 10
     iter. #   101  RMS(g-h-1)= 4.575E-06  nbox=  8
     iter. #   111  RMS(g-h-1)= 2.567E-06  nbox= 10
     iter. #   121  RMS(g-h-1)= 2.973E-06  nbox= 10
     iter. #   131  RMS(g-h-1)= 1.743E-06  nbox= 10
     iter. #   141  RMS(g-h-1)= 1.899E-06  nbox= 10
     iter. #   151  RMS(g-h-1)= 1.379E-06  nbox= 10
     iter. #   161  RMS(g-h-1)= 2.124E-06  nbox= 10
     iter. #   171  RMS(g-h-1)= 1.371E-06  nbox=  8
     iter. #   181  RMS(g-h-1)= 2.181E-06  nbox= 10
     iter. #   191  RMS(g-h-1)= 2.169E-06  nbox= 10
     iter. #   201  RMS(g-h-1)= 2.004E-06  nbox= 10
     iter. #   211  RMS(g-h-1)= 1.303E-06  nbox=  7
     iter. #   221  RMS(g-h-1)= 1.176E-06  nbox= 10
     iter. #   231  RMS(g-h-1)= 1.958E-06  nbox= 10
     iter. #   241  RMS(g-h-1)= 2.077E-06  nbox=  4
     iter. #   251  RMS(g-h-1)= 1.120E-06  nbox= 10
     iter. #   261  RMS(g-h-1)= 2.106E-06  nbox=  3
     iter. #   271  RMS(g-h-1)= 1.889E-06  nbox= 10
     iter. #   281  RMS(g-h-1)= 2.015E-06  nbox= 10
     iter. #   291  RMS(g-h-1)= 1.861E-06  nbox=  4
     iter. #   301  RMS(g-h-1)= 1.853E-06  nbox= 10
     iter. #   311  RMS(g-h-1)= 1.852E-06  nbox=  8
     iter. #   321  RMS(g-h-1)= 1.026E-06  nbox= 10
     iter. #   331  RMS(g-h-1)= 1.090E-06  nbox=  8
     iter. #   341  RMS(g-h-1)= 1.083E-06  nbox= 10
     iter. #   351  RMS(g-h-1)= 1.793E-06  nbox= 10
     iter. #   361  RMS(g-h-1)= 1.011E-06  nbox=  5
     iter. #   371  RMS(g-h-1)= 1.004E-06  nbox= 10
     iter. #   381  RMS(g-h-1)= 1.799E-06  nbox=  8
     iter. #   382  RMS(g-h-1)= 9.838E-07  nbox=  9

     End of Laue-RISM calculation


     convergence has been achieved in   382 iterations


     solvent charge   -0.00604, renormalised to    0.00000

     Total number of solvent (in expand-cell)
     H2O         1126.674438
     K+            20.395449
     OH-           20.395400

     Total charge of solvent (in expand-cell)
     H2O           -0.006106 e
     K+            20.395449 e
     OH-          -20.395382 e
     Total         -0.006038 e

     Chemical potential of solvation (in expand-cell)
     H2O        GaussFluct  -0.637139E+01 kcal/mol
     K+         GaussFluct  -0.112948E+01 kcal/mol
     OH-        GaussFluct  -0.673429E+00 kcal/mol
     Total      GaussFluct  -0.817430E+01 kcal/mol


     total cpu time spent up to now is     3000.4 secs

     total energy              =     -34.68179755 Ry
     estimated scf accuracy    <       0.00015827 Ry

     iteration #  5     ecut=    40.00 Ry     beta= 0.10
     Davidson diagonalization with overlap
     ethr =  1.98E-06,  avg # of iterations =  5.0

     negative rho (up, down):  7.203E-03 0.000E+00

     Laue-RISM Calculation

     convergence threshold    = 1.000E-06
     iter. #     1  RMS(g-h-1)= 5.577E-05  nbox=  0
     iter. #    11  RMS(g-h-1)= 6.396E-06  nbox= 10
     iter. #    21  RMS(g-h-1)= 3.668E-06  nbox= 10
     iter. #    31  RMS(g-h-1)= 2.320E-06  nbox= 10
     iter. #    41  RMS(g-h-1)= 2.611E-06  nbox= 10
     iter. #    51  RMS(g-h-1)= 3.460E-06  nbox= 10
     iter. #    61  RMS(g-h-1)= 2.550E-06  nbox=  9
     iter. #    71  RMS(g-h-1)= 2.216E-06  nbox= 10
     iter. #    81  RMS(g-h-1)= 3.230E-06  nbox=  6
[...]

     Laue-RISM Calculation

     convergence threshold    = 1.000E-06
     iter. #     1  RMS(g-h-1)= 2.668E-05  nbox=  0
     iter. #    11  RMS(g-h-1)= 2.883E-06  nbox= 10
     iter. #    21  RMS(g-h-1)= 1.236E-06  nbox= 10
     iter. #    31  RMS(g-h-1)= 1.034E-06  nbox= 10
     iter. #    35  RMS(g-h-1)= 9.983E-07  nbox= 10

     End of Laue-RISM calculation


     convergence has been achieved in    35 iterations


     solvent charge   -0.00562, renormalised to    0.00000

     Total number of solvent (in expand-cell)
     H2O         1126.699110
     K+            20.394839
     OH-           20.394753

     Total charge of solvent (in expand-cell)
     H2O           -0.005647 e
     K+            20.394839 e
     OH-          -20.394812 e
     Total         -0.005620 e

     Chemical potential of solvation (in expand-cell)
     H2O        GaussFluct  -0.641316E+01 kcal/mol
     K+         GaussFluct  -0.125925E+01 kcal/mol
     OH-        GaussFluct  -0.438671E+00 kcal/mol
     Total      GaussFluct  -0.811109E+01 kcal/mol


     total cpu time spent up to now is     3779.1 secs

     total energy              =     -34.68689368 Ry
     estimated scf accuracy    <       0.00000282 Ry

     iteration #  6     ecut=    40.00 Ry     beta= 0.10
     Davidson diagonalization with overlap
     ethr =  3.53E-08,  avg # of iterations =  1.0

     negative rho (up, down):  7.168E-03 0.000E+00

     Laue-RISM Calculation

     convergence threshold    = 1.000E-06
     iter. #     1  RMS(g-h-1)= 4.423E-05  nbox=  0
     iter. #    11  RMS(g-h-1)= 5.382E-06  nbox= 10
     iter. #    21  RMS(g-h-1)= 2.212E-06  nbox= 10
     iter. #    31  RMS(g-h-1)= 1.685E-06  nbox= 10
     iter. #    41  RMS(g-h-1)= 1.390E-06  nbox= 10
     iter. #    51  RMS(g-h-1)= 1.186E-06  nbox= 10
     iter. #    61  RMS(g-h-1)= 1.073E-06  nbox=  8
     iter. #    71  RMS(g-h-1)= 1.016E-06  nbox=  2
     iter. #    74  RMS(g-h-1)= 9.953E-07  nbox=  5

     End of Laue-RISM calculation


     convergence has been achieved in    74 iterations


     solvent charge   -0.00542, renormalised to    0.00000

     Total number of solvent (in expand-cell)
     H2O         1126.702186
     K+            20.395251
     OH-           20.395268

     Total charge of solvent (in expand-cell)
     H2O           -0.005588 e
     K+            20.395251 e
     OH-          -20.395087 e
     Total         -0.005424 e

     Chemical potential of solvation (in expand-cell)
     H2O        GaussFluct  -0.644871E+01 kcal/mol
     K+         GaussFluct  -0.126499E+01 kcal/mol
     OH-        GaussFluct  -0.440802E+00 kcal/mol
     Total      GaussFluct  -0.815450E+01 kcal/mol


     total cpu time spent up to now is     3827.1 secs

     total energy              =     -34.68689794 Ry
     estimated scf accuracy    <       0.00000250 Ry

     iteration #  7     ecut=    40.00 Ry     beta= 0.10
     Davidson diagonalization with overlap
     ethr =  3.12E-08,  avg # of iterations =  2.0

     negative rho (up, down):  6.988E-03 0.000E+00

     Laue-RISM Calculation

     convergence threshold    = 1.000E-06
     iter. #     1  RMS(g-h-1)= 3.952E-05  nbox=  0
     iter. #    11  RMS(g-h-1)= 4.234E-06  nbox= 10
     iter. #    21  RMS(g-h-1)= 1.800E-06  nbox= 10
     iter. #    31  RMS(g-h-1)= 1.341E-06  nbox= 10
     iter. #    41  RMS(g-h-1)= 1.112E-06  nbox= 10
     iter. #    51  RMS(g-h-1)= 1.030E-06  nbox= 10
     iter. #    58  RMS(g-h-1)= 9.962E-07  nbox=  6

     End of Laue-RISM calculation


     convergence has been achieved in    58 iterations


     solvent charge   -0.00571, renormalised to    0.00000

     Total number of solvent (in expand-cell)
     H2O         1126.703872
     K+            20.395373
     OH-           20.395376

     Total charge of solvent (in expand-cell)
     H2O           -0.005561 e
     K+            20.395373 e
     OH-          -20.395523 e
     Total         -0.005711 e

     Chemical potential of solvation (in expand-cell)
     H2O        GaussFluct  -0.646689E+01 kcal/mol
     K+         GaussFluct  -0.126817E+01 kcal/mol
     OH-        GaussFluct  -0.442361E+00 kcal/mol
     Total      GaussFluct  -0.817742E+01 kcal/mol


     total cpu time spent up to now is     3866.0 secs

     total energy              =     -34.68689813 Ry
     estimated scf accuracy    <       0.00000663 Ry

     iteration #  8     ecut=    40.00 Ry     beta= 0.10
     Davidson diagonalization with overlap
     ethr =  3.12E-08,  avg # of iterations =  2.0

     negative rho (up, down):  6.492E-03 0.000E+00

     Laue-RISM Calculation

     convergence threshold    = 1.000E-06
     iter. #     1  RMS(g-h-1)= 7.711E-06  nbox=  0
     iter. #    11  RMS(g-h-1)= 1.235E-06  nbox= 10
     iter. #    21  RMS(g-h-1)= 1.026E-06  nbox= 10
     iter. #    24  RMS(g-h-1)= 9.933E-07  nbox= 10

     End of Laue-RISM calculation


     convergence has been achieved in    24 iterations


     solvent charge   -0.00560, renormalised to    0.00000

     Total number of solvent (in expand-cell)
     H2O         1126.703473
     K+            20.395368
     OH-           20.395310

     Total charge of solvent (in expand-cell)
     H2O           -0.005563 e
     K+            20.395368 e
     OH-          -20.395406 e
     Total         -0.005601 e

     Chemical potential of solvation (in expand-cell)
     H2O        GaussFluct  -0.646209E+01 kcal/mol
     K+         GaussFluct  -0.126728E+01 kcal/mol
     OH-        GaussFluct  -0.440999E+00 kcal/mol
     Total      GaussFluct  -0.817036E+01 kcal/mol


     total cpu time spent up to now is     3884.2 secs

     End of self-consistent calculation

          k = 0.0000 0.0000 0.0000 (115195 PWs)   bands (ev):

   -25.0204 -12.7493  -9.4123  -7.3458  -0.7386  -0.1892   0.0756   0.0883
     0.0949   0.1190   0.1245   0.2771   0.4000   0.4132   0.4304   0.4823
     0.4888   0.4994   0.5000   0.5021

     the Fermi energy is    -5.1982 ev

!    total energy              =     -34.68689686 Ry
     estimated scf accuracy    <       0.00000005 Ry
     smearing contrib. (-TS)   =      -0.00000000 Ry
     internal energy E=F+TS    =     -34.68689686 Ry

     The total energy is F=E-TS. E is the sum of the following terms:
     one-electron contribution =     -68.89446565 Ry
     hartree contribution      =      35.96203033 Ry
     xc contribution           =      -8.66884638 Ry
     ewald contribution        =       6.94044286 Ry
     solvation energy (RISM)   =      -0.02605802 Ry

     convergence has been achieved in   8 iterations

     negative rho (up, down):  6.492E-03 0.000E+00

     Forces acting on atoms (cartesian axes, Ry/au):

     atom    1 type  1   force =     0.00079752    0.00079752   -0.00003309
     atom    2 type  2   force =    -0.00038968   -0.00038968   -0.00305106
     atom    3 type  2   force =    -0.00040784   -0.00040784    0.00308355

     Total force =     0.004553     Total SCF correction =     0.000303
     Energy error            =      5.1E-03 Ry
     Gradient error          =      3.1E-03 Ry/Bohr

     number of scf cycles    =   4
     number of bfgs steps    =   3

     energy             old  =     -34.6818193017 Ry
     energy             new  =     -34.6868968576 Ry

     CASE: energy            _new < energy            _old

     new trust radius        =       0.0071129397 bohr
     new conv_thr            =       0.0000010000 Ry


ATOMIC_POSITIONS (angstrom)
O                0.1113633659        0.1113633659       -0.0000012599
H                0.5443240681        0.5443240681        0.7726255933
H                0.5443125660        0.5443125660       -0.7726082351



     Writing config-only to output data dir output/opt.save/ :
     XML data file
     NEW-OLD atomic charge density approx. for the potential

     negative rho (up, down):  6.498E-03 0.000E+00

     Laue-RISM Calculation

     convergence threshold    = 1.000E-04
     iter. #     1  RMS(g-h-1)= 1.778E-03  nbox=  0
     iter. #     8  RMS(g-h-1)= 9.615E-05  nbox=  7

     End of Laue-RISM calculation


     convergence has been achieved in     8 iterations


     solvent charge   -0.00783, renormalised to    0.00000

     Total number of solvent (in expand-cell)
     H2O         1126.711187
     K+            20.394300
     OH-           20.396035

     Total charge of solvent (in expand-cell)
     H2O           -0.003992 e
     K+            20.394300 e
     OH-          -20.398133 e
     Total         -0.007825 e

     Chemical potential of solvation (in expand-cell)
     H2O        GaussFluct  -0.653028E+01 kcal/mol
     K+         GaussFluct  -0.126259E+01 kcal/mol
     OH-        GaussFluct  -0.400082E+00 kcal/mol
     Total      GaussFluct  -0.819294E+01 kcal/mol


     total cpu time spent up to now is     3893.8 secs

     Self-consistent Calculation

     iteration #  1     ecut=    40.00 Ry     beta= 0.10
     Davidson diagonalization with overlap
     ethr =  1.00E-06,  avg # of iterations =  3.0

     negative rho (up, down):  6.498E-03 0.000E+00

     Laue-RISM Calculation

     convergence threshold    = 1.000E-06
     iter. #     1  RMS(g-h-1)= 9.498E-05  nbox=  0
     iter. #    11  RMS(g-h-1)= 3.041E-05  nbox= 10
     iter. #    21  RMS(g-h-1)= 1.539E-05  nbox= 10
     iter. #    31  RMS(g-h-1)= 1.007E-05  nbox= 10
     iter. #    41  RMS(g-h-1)= 6.738E-06  nbox= 10
     iter. #    51  RMS(g-h-1)= 5.309E-06  nbox= 10
     iter. #    61  RMS(g-h-1)= 4.355E-06  nbox= 10
     iter. #    71  RMS(g-h-1)= 3.262E-06  nbox= 10
     iter. #    81  RMS(g-h-1)= 2.299E-06  nbox= 10
     iter. #    91  RMS(g-h-1)= 2.038E-06  nbox= 10
     iter. #   101  RMS(g-h-1)= 1.604E-06  nbox=  5
     iter. #   111  RMS(g-h-1)= 1.146E-06  nbox= 10
     iter. #   121  RMS(g-h-1)= 1.039E-06  nbox= 10
     iter. #   128  RMS(g-h-1)= 9.933E-07  nbox=  5

     End of Laue-RISM calculation


     convergence has been achieved in   128 iterations


     solvent charge   -0.00540, renormalised to    0.00000

     Total number of solvent (in expand-cell)
     H2O         1126.703816
     K+            20.395572
     OH-           20.395527

     Total charge of solvent (in expand-cell)
     H2O           -0.005562 e
     K+            20.395572 e
     OH-          -20.395409 e
     Total         -0.005400 e

     Chemical potential of solvation (in expand-cell)
     H2O        GaussFluct  -0.646706E+01 kcal/mol
     K+         GaussFluct  -0.126635E+01 kcal/mol
     OH-        GaussFluct  -0.445689E+00 kcal/mol
     Total      GaussFluct  -0.817910E+01 kcal/mol


     total cpu time spent up to now is     3977.3 secs

     total energy              =     -34.68690852 Ry
     estimated scf accuracy    <       0.00000845 Ry

     iteration #  2     ecut=    40.00 Ry     beta= 0.10
     Davidson diagonalization with overlap
     ethr =  1.06E-07,  avg # of iterations =  2.0

     negative rho (up, down):  6.498E-03 0.000E+00

     Laue-RISM Calculation

     convergence threshold    = 1.000E-06
     iter. #     1  RMS(g-h-1)= 9.313E-06  nbox=  0
     iter. #    11  RMS(g-h-1)= 1.318E-06  nbox= 10
     iter. #    21  RMS(g-h-1)= 1.009E-06  nbox= 10
     iter. #    22  RMS(g-h-1)= 9.937E-07  nbox= 10

     End of Laue-RISM calculation


     convergence has been achieved in    22 iterations


     solvent charge   -0.00541, renormalised to    0.00000

     Total number of solvent (in expand-cell)
     H2O         1126.703505
     K+            20.395551
     OH-           20.395488

     Total charge of solvent (in expand-cell)
     H2O           -0.005575 e
     K+            20.395551 e
     OH-          -20.395390 e
     Total         -0.005413 e

     Chemical potential of solvation (in expand-cell)
     H2O        GaussFluct  -0.646518E+01 kcal/mol
     K+         GaussFluct  -0.126583E+01 kcal/mol
     OH-        GaussFluct  -0.446577E+00 kcal/mol
     Total      GaussFluct  -0.817759E+01 kcal/mol


     total cpu time spent up to now is     3994.5 secs

     total energy              =     -34.68691160 Ry
     estimated scf accuracy    <       0.00000248 Ry

     iteration #  3     ecut=    40.00 Ry     beta= 0.10
     Davidson diagonalization with overlap
     ethr =  3.10E-08,  avg # of iterations =  1.0

     negative rho (up, down):  6.497E-03 0.000E+00

     Laue-RISM Calculation

     convergence threshold    = 1.000E-06
     iter. #     1  RMS(g-h-1)= 2.929E-05  nbox=  0
     iter. #    11  RMS(g-h-1)= 3.164E-06  nbox= 10
     iter. #    21  RMS(g-h-1)= 1.296E-06  nbox= 10
     iter. #    31  RMS(g-h-1)= 1.109E-06  nbox= 10
     iter. #    39  RMS(g-h-1)= 9.983E-07  nbox= 10

     End of Laue-RISM calculation


     convergence has been achieved in    39 iterations


     solvent charge   -0.00539, renormalised to    0.00000

     Total number of solvent (in expand-cell)
     H2O         1126.702467
     K+            20.395485
     OH-           20.395373

     Total charge of solvent (in expand-cell)
     H2O           -0.005601 e
     K+            20.395485 e
     OH-          -20.395278 e
     Total         -0.005394 e

     Chemical potential of solvation (in expand-cell)
     H2O        GaussFluct  -0.645802E+01 kcal/mol
     K+         GaussFluct  -0.126333E+01 kcal/mol
     OH-        GaussFluct  -0.449288E+00 kcal/mol
     Total      GaussFluct  -0.817064E+01 kcal/mol


     total cpu time spent up to now is     4022.1 secs

     total energy              =     -34.68691052 Ry
     estimated scf accuracy    <       0.00000158 Ry

     iteration #  4     ecut=    40.00 Ry     beta= 0.10
     Davidson diagonalization with overlap
     ethr =  1.98E-08,  avg # of iterations =  2.0

     negative rho (up, down):  6.496E-03 0.000E+00

     Laue-RISM Calculation

     convergence threshold    = 1.000E-06
     iter. #     1  RMS(g-h-1)= 2.754E-05  nbox=  0
     iter. #    11  RMS(g-h-1)= 3.068E-06  nbox= 10
     iter. #    21  RMS(g-h-1)= 1.455E-06  nbox= 10
     iter. #    31  RMS(g-h-1)= 1.126E-06  nbox= 10
     iter. #    41  RMS(g-h-1)= 1.034E-06  nbox=  2
     iter. #    44  RMS(g-h-1)= 9.985E-07  nbox=  5

     End of Laue-RISM calculation


     convergence has been achieved in    44 iterations


     solvent charge   -0.00534, renormalised to    0.00000

     Total number of solvent (in expand-cell)
     H2O         1126.701132
     K+            20.395392
     OH-           20.395261

     Total charge of solvent (in expand-cell)
     H2O           -0.005631 e
     K+            20.395392 e
     OH-          -20.395102 e
     Total         -0.005341 e

     Chemical potential of solvation (in expand-cell)
     H2O        GaussFluct  -0.644680E+01 kcal/mol
     K+         GaussFluct  -0.126023E+01 kcal/mol
     OH-        GaussFluct  -0.450555E+00 kcal/mol
     Total      GaussFluct  -0.815759E+01 kcal/mol


     total cpu time spent up to now is     4052.3 secs

     End of self-consistent calculation

          k = 0.0000 0.0000 0.0000 (115195 PWs)   bands (ev):

   -25.0425 -12.7370  -9.4404  -7.3514  -0.7360  -0.1834   0.0778   0.0957
     0.0999   0.1242   0.1300   0.2829   0.4033   0.4186   0.4354   0.4871
     0.4966   0.5041   0.5054   0.5090

     the Fermi energy is    -5.1986 ev

!    total energy              =     -34.68690840 Ry
     estimated scf accuracy    <       0.00000036 Ry
     smearing contrib. (-TS)   =      -0.00000000 Ry
     internal energy E=F+TS    =     -34.68690840 Ry

     The total energy is F=E-TS. E is the sum of the following terms:
     one-electron contribution =     -68.92297609 Ry
     hartree contribution      =      35.97397653 Ry
     xc contribution           =      -8.67082514 Ry
     ewald contribution        =       6.95893358 Ry
     solvation energy (RISM)   =      -0.02601728 Ry

     convergence has been achieved in   4 iterations

     negative rho (up, down):  6.496E-03 0.000E+00

     Forces acting on atoms (cartesian axes, Ry/au):

     atom    1 type  1   force =     0.00017524    0.00017524    0.00003764
     atom    2 type  2   force =    -0.00009862   -0.00009862    0.00003578
     atom    3 type  2   force =    -0.00007662   -0.00007662   -0.00007422

     Total force =     0.000318     Total SCF correction =     0.000276
     SCF correction compared to forces is large: reduce conv_thr to get better values
     Energy error            =      1.2E-05 Ry
     Gradient error          =      1.8E-04 Ry/Bohr

     bfgs converged in   5 scf cycles and   4 bfgs steps
     (criteria: energy <  1.0E-04 Ry, force <  1.0E-03 Ry/Bohr)

     End of BFGS Geometry Optimization

     Final energy             =     -34.6869084007 Ry

     File output/opt.bfgs deleted, as requested
Begin final coordinates

ATOMIC_POSITIONS (angstrom)
O                0.1113633659        0.1113633659       -0.0000012599
H                0.5443240681        0.5443240681        0.7726255933
H                0.5443125660        0.5443125660       -0.7726082351
End final coordinates



     Writing all to output data dir output/opt.save/ :
     XML data file, charge density, RISM restart, pseudopotentials, RISM molfiles, collected wavefunctions
 
     init_run     :     80.37s CPU     81.58s WALL (       1 calls)
     electrons    :   3602.53s CPU   3656.08s WALL (       5 calls)
     update_pot   :      0.89s CPU      0.96s WALL (       4 calls)
     forces       :      2.67s CPU      2.99s WALL (       5 calls)

     Called by init_run:
     wfcinit      :      0.03s CPU      0.05s WALL (       1 calls)
     potinit      :     78.64s CPU     79.72s WALL (       1 calls)
     hinit0       :      0.16s CPU      0.19s WALL (       1 calls)

     Called by electrons:
     c_bands      :      5.91s CPU      6.00s WALL (      43 calls)
     sum_band     :      5.54s CPU      7.67s WALL (      43 calls)
     v_of_rho     :      8.05s CPU      8.53s WALL (      48 calls)
     newd         :      5.63s CPU      7.55s WALL (      48 calls)
     mix_rho      :      1.43s CPU      1.55s WALL (      43 calls)

     Called by c_bands:
     init_us_2    :      0.05s CPU      0.05s WALL (      87 calls)
     regterg      :      5.83s CPU      5.87s WALL (      43 calls)

     Called by *egterg:
     rdiaghg      :      0.07s CPU      0.07s WALL (     189 calls)
     h_psi        :      5.09s CPU      5.13s WALL (     194 calls)
     s_psi        :      0.06s CPU      0.06s WALL (     194 calls)
     g_psi        :      0.01s CPU      0.01s WALL (     150 calls)

     Called by h_psi:
     h_psi:calbec :      0.11s CPU      0.11s WALL (     194 calls)
     vloc_psi     :      4.89s CPU      4.93s WALL (     194 calls)
     add_vuspsi   :      0.07s CPU      0.07s WALL (     194 calls)

     General routines
     calbec       :      0.15s CPU      0.15s WALL (     257 calls)
     fft          :      8.89s CPU      9.94s WALL (     716 calls)
     ffts         :      0.44s CPU      0.52s WALL (      91 calls)
     fftw         :      4.41s CPU      4.43s WALL (    2730 calls)
     interpolate  :      0.86s CPU      0.96s WALL (      48 calls)
 
     Parallel routines
     fft_scatt_xy :     28.34s CPU     28.71s WALL (   75054 calls)
     fft_scatt_yz :    299.05s CPU    339.49s WALL (   75054 calls)

     RISM routines
     1DRISM_pre   :      0.00s CPU      0.00s WALL (       1 calls)
     1DRISM_run   :    118.10s CPU    158.17s WALL (       1 calls)
     3DRISM_pre   :      6.81s CPU      6.96s WALL (       1 calls)
     3DRISM_run   :   3793.67s CPU   3844.26s WALL (      48 calls)
     3DRISM_ions  :      0.21s CPU      0.21s WALL (       4 calls)
     3DRISM_for   :      0.47s CPU      0.47s WALL (       5 calls)
     3DRISM_vsol  :      0.66s CPU      0.71s WALL (      48 calls)
 
     PWSCF        :      1h 6m CPU      1h 7m WALL

 
   This run was terminated on:  12:50: 7  29May2024            

=------------------------------------------------------------------------------=
   JOB DONE.
=------------------------------------------------------------------------------=
