
     Program PWSCF v.7.3.1 starts on  9Jun2024 at 16:17:26 

     This program is part of the open-source Quantum ESPRESSO suite
     for quantum simulation of materials; please cite
         "P. Giannozzi et al., J. Phys.:Condens. Matter 21 395502 (2009);
         "P. Giannozzi et al., J. Phys.:Condens. Matter 29 465901 (2017);
         "P. Giannozzi et al., J. Chem. Phys. 152 154105 (2020);
          URL http://www.quantum-espresso.org", 
     in publications or presentations arising from this work. More details at
     http://www.quantum-espresso.org/quote

     Parallel version (MPI), running on    32 processors

     MPI processes distributed on     1 nodes
     179246 MiB available memory on the printing compute node when the environment starts
 
     Reading input from scf.in
Warning: card &CELL ignored
Warning: card / ignored

     Current dimensions of program PWSCF are:
     Max number of different atomic species (ntypx) = 10
     Max number of k-points (npk) =  40000
     Max angular momentum in pseudopotentials (lmaxx) =  4
 
     Reading input from environ.in:
     * using full solvent mode
     * setting boundary derivatives method to SCCS default
     * setting electrolyte-boundary derivatives method to SCCS default
     
 
     R & G space division:  proc/nbgrp/npool/nimage =      32
     Subspace diagonalization in iterative solution of the eigenvalue problem:
     a serial algorithm will be used

 
     Parallelization info
     --------------------
     sticks:   dense  smooth     PW     G-vecs:    dense   smooth      PW
     Min          64      32      8                13804     4878     692
     Max          65      33      9                13839     4905     719
     Sum        2053    1027    283               442007   156319   22723
 
     Using Slab Decomposition
 


     bravais-lattice index     =            0
     lattice parameter (alat)  =       9.6476  a.u.
     unit-cell volume          =    4569.7547 (a.u.)^3
     number of atoms/cell      =           14
     number of atomic types    =            3
     number of electrons       =       238.00
     number of Kohn-Sham states=          143
     kinetic-energy cutoff     =      40.0000  Ry
     charge density cutoff     =     320.0000  Ry
     scf convergence threshold =      1.0E-06
     mixing beta               =       0.0500
     number of iterations used =            8  plain     mixing
     Exchange-correlation= SLA  PW   PBE  PBE
                           (   1   4   3   4   0   0   0)

     ================================================================================
 
                                  Environ Setup Summary

     ================================================================================
 
     Please cite

          O. Andreussi, I. Dabo and N. Marzari, J. Chem. Phys. 136, 064102 (2012)
          F. Nattino, M. Truscott, N. Marzari, and O. Andreussi, J. Chem. Phys. 150, 041722 (2019)

     in publications or presentations arising from this work.

     ================================================================================
 
     Parameters
     ==========

     compensation onset threshold      =               0.1000E+03
     static permittivity               =                    80.00

     Solvent Boundary
     ================

     solvent mode                      =                     full
     derivatives method                =                    chain
     electrolyte derivatives method    =                    chain
     numerical core for derivatives    =                      fft
     switching function adopted        =                     SCCS
     density limit for vacuum region   =               0.5000E-02
     density limit for bulk solvent    =               0.1000E-03

     Electrostatic Setup
     ===================

     electrostatic problem to solve    =                    modpb
     numerical solver adopted          =                   newton
     type of auxiliary density adopted =                     none
     numerical core for poisson        =                      fft
     adopting a nested solver scheme
     inner solver                      =                       cg
     inner core                        =                      fft
     type of pbc corrections           =                parabolic
     numerical core for corrections    =                      1da

     ================================================================================
 

     celldm(1)=   9.647639  celldm(2)=   0.000000  celldm(3)=   0.000000
     celldm(4)=   0.000000  celldm(5)=   0.000000  celldm(6)=   0.000000

     crystal axes: (cart. coord. in units of alat)
               a(1) = (   1.000000   0.000000   0.000000 )  
               a(2) = (   0.500000   0.866025   0.000000 )  
               a(3) = (   0.000000   0.000000   5.876234 )  

     reciprocal axes: (cart. coord. in units 2 pi/alat)
               b(1) = (  1.000000 -0.577350  0.000000 )  
               b(2) = (  0.000000  1.154701  0.000000 )  
               b(3) = (  0.000000  0.000000  0.170177 )  


     PseudoPot. # 1 for Cu read from file:
     ../../pseudo/cu_pbe_v1.2.uspp.F.UPF
     MD5 check sum: 6e991ff952a84172a2a52a1c1e996048
     Pseudo is Ultrasoft + core correction, Zval = 19.0
     Generated by new atomic code, or converted to UPF format
     Using radial grid of  867 points,  6 beta functions with: 
                l(1) =   0
                l(2) =   0
                l(3) =   1
                l(4) =   1
                l(5) =   2
                l(6) =   2
     Q(r) pseudized with  8 coefficients,  rinner =    1.150   1.150   1.150
                                                       1.150   1.150

     PseudoPot. # 2 for O  read from file:
     ../../pseudo/o_pbe_v1.2.uspp.F.UPF
     MD5 check sum: 734c27235a0248c51dbae37a1fbe46ec
     Pseudo is Ultrasoft + core correction, Zval =  6.0
     Generated by new atomic code, or converted to UPF format
     Using radial grid of  737 points,  5 beta functions with: 
                l(1) =   0
                l(2) =   0
                l(3) =   1
                l(4) =   1
                l(5) =   2
     Q(r) pseudized with  8 coefficients,  rinner =    0.900   0.900   0.900
                                                       0.900   0.900

     PseudoPot. # 3 for C  read from file:
     ../../pseudo/c_pbe_v1.2.uspp.F.UPF
     MD5 check sum: d1aef80898a10debaa0f26306b886e00
     Pseudo is Ultrasoft + core correction, Zval =  4.0
     Generated by new atomic code, or converted to UPF format
     Using radial grid of  721 points,  4 beta functions with: 
                l(1) =   0
                l(2) =   0
                l(3) =   1
                l(4) =   1
     Q(r) pseudized with  8 coefficients,  rinner =    1.100   1.100   1.100


     atomic species   valence    mass     pseudopotential
     Cu               19.00    63.54600     Cu( 1.00)
     O                 6.00    15.99900     O ( 1.00)
     C                 4.00    12.01100     C ( 1.00)

     No symmetry found



   Cartesian axes

     site n.     atom                  positions (alat units)
         1        Cu     tau(   1) = (   0.1250000   0.0721688   2.5267805  )
         2        Cu     tau(   2) = (   0.6303651   0.3620439   2.9279060  )
         3        Cu     tau(   3) = (   0.3908697   0.2225165   3.3257332  )
         4        Cu     tau(   4) = (   0.3750000   0.5051815   2.5267805  )
         5        Cu     tau(   5) = (   0.8810586   0.7929929   2.9306663  )
         6        Cu     tau(   6) = (   0.6406493   0.6600251   3.3478296  )
         7        Cu     tau(   7) = (   0.6250000   0.0721688   2.5267805  )
         8        Cu     tau(   8) = (   1.1289367   0.3637558   2.9309409  )
         9        Cu     tau(   9) = (   0.8944855   0.2208325   3.3490690  )
        10        Cu     tau(  10) = (   0.8750000   0.5051815   2.5267805  )
        11        Cu     tau(  11) = (   1.3806944   0.7954917   2.9432130  )
        12        Cu     tau(  12) = (   1.1455917   0.6584810   3.3504614  )
        13        O      tau(  13) = (   0.8819856   0.5082280   3.8458037  )
        14        C      tau(  14) = (   0.8813532   0.5068991   3.6145444  )

     number of k points=     2  Methfessel-Paxton smearing, width (Ry)=  0.0100
                       cart. coord. in units 2pi/alat
        k(    1) = (   0.2500000   0.1443376   0.0000000), wk =   1.0000000
        k(    2) = (   0.2500000  -0.4330127   0.0000000), wk =   1.0000000

     Dense  grid:   442007 G-vectors     FFT dimensions: (  60,  60, 324)

     Smooth grid:   156319 G-vectors     FFT dimensions: (  40,  40, 240)

     Estimated max dynamical RAM per process >      66.24 MB

     Estimated total dynamical RAM >       2.07 GB

Environ Warning (1005): wrong integral of erfc function


     Initial potential from superposition of free atoms

     starting charge     225.9999, renormalised to     238.0000

     negative rho (up, down):  4.015E-03 0.000E+00
     Starting wfcs are  164 randomized atomic wfcs

     total cpu time spent up to now is        0.8 secs

     Self-consistent Calculation

     iteration #  1     ecut=    40.00 Ry     beta= 0.05
     Davidson diagonalization with overlap
     ethr =  1.00E-02,  avg # of iterations =  8.0

     negative rho (up, down):  1.223E-03 0.000E+00

     total cpu time spent up to now is        2.2 secs

     total energy              =   -4858.27222116 Ry
     estimated scf accuracy    <     491.59819648 Ry
     electrostatic embedding   =       0.00000000 Ry
     electrolyte free energy   =       0.00172904 Ry
     correction to one-el term =       0.00000000 Ry

     iteration #  2     ecut=    40.00 Ry     beta= 0.05
     Davidson diagonalization with overlap
     ethr =  1.00E-02,  avg # of iterations =  8.0

     negative rho (up, down):  5.985E-04 0.000E+00

     total cpu time spent up to now is        3.5 secs

     total energy              =   -4871.30389874 Ry
     estimated scf accuracy    <    1313.73972472 Ry
     electrostatic embedding   =       0.00000000 Ry
     electrolyte free energy   =       0.00172904 Ry
     correction to one-el term =       0.00000000 Ry

     iteration #  3     ecut=    40.00 Ry     beta= 0.05
     Davidson diagonalization with overlap
     ethr =  1.00E-02,  avg # of iterations =  6.5

     negative rho (up, down):  5.450E-04 0.000E+00

     add environment contribution to local potential
     Polarization accuracy = 1.2E-18, # of iterations =  33
     Polarization accuracy = 4.5E-20, # of iterations =   1
     Electrolyte accuracy = 4.4E-20, # of iterations =   2

     total cpu time spent up to now is        4.6 secs

     total energy              =   -4890.59232020 Ry
     estimated scf accuracy    <      29.43799187 Ry
     electrostatic embedding   =       0.00000000 Ry
     electrolyte free energy   =       0.00172904 Ry
     correction to one-el term =       0.00000000 Ry

     iteration #  4     ecut=    40.00 Ry     beta= 0.05
     Davidson diagonalization with overlap
     ethr =  1.00E-02,  avg # of iterations =  1.5

     negative rho (up, down):  5.407E-04 0.000E+00

     add environment contribution to local potential
     Polarization accuracy = 4.6E-18, # of iterations =  35
     Polarization accuracy = 3.0E-19, # of iterations =   1
     Electrolyte accuracy = 4.9E-19, # of iterations =   2

     total cpu time spent up to now is        5.4 secs

     total energy              =   -4887.77465096 Ry
     estimated scf accuracy    <      13.75757542 Ry
     electrostatic embedding   =      -0.05977297 Ry
     electrolyte free energy   =       0.00172904 Ry
     correction to one-el term =      53.44715090 Ry

     iteration #  5     ecut=    40.00 Ry     beta= 0.05
     Davidson diagonalization with overlap
     ethr =  5.78E-03,  avg # of iterations =  3.5
     Minimization algorithm failed to find Fermi energy: reverting to bisection
     Possible cause: smearing is larger than the electronic band-gap.

     negative rho (up, down):  5.329E-04 0.000E+00

     add environment contribution to local potential
     Polarization accuracy = 6.7E-19, # of iterations =  36
     Polarization accuracy = 4.1E-20, # of iterations =   1
     Electrolyte accuracy = 3.7E-20, # of iterations =   2

     total cpu time spent up to now is        6.4 secs

     total energy              =   -4888.51980146 Ry
     estimated scf accuracy    <       2.97303370 Ry
     electrostatic embedding   =      -0.04102875 Ry
     electrolyte free energy   =       0.00172904 Ry
     correction to one-el term =      53.39082499 Ry

     iteration #  6     ecut=    40.00 Ry     beta= 0.05
     Davidson diagonalization with overlap
     ethr =  1.25E-03,  avg # of iterations = 10.5

     negative rho (up, down):  5.055E-04 0.000E+00

     add environment contribution to local potential
     Polarization accuracy = 4.6E-19, # of iterations =  36
     Polarization accuracy = 1.6E-20, # of iterations =   1
     Electrolyte accuracy = 3.0E-20, # of iterations =   2

     total cpu time spent up to now is        7.9 secs

     total energy              =   -4888.92547364 Ry
     estimated scf accuracy    <       0.85024879 Ry
     electrostatic embedding   =      -0.03153696 Ry
     electrolyte free energy   =       0.00172904 Ry
     correction to one-el term =      53.26272717 Ry

     iteration #  7     ecut=    40.00 Ry     beta= 0.05
     Davidson diagonalization with overlap
     ethr =  3.57E-04,  avg # of iterations =  2.0

     negative rho (up, down):  5.105E-04 0.000E+00

     add environment contribution to local potential
     Polarization accuracy = 1.3E-18, # of iterations =  36
     Polarization accuracy = 3.6E-20, # of iterations =   1
     Electrolyte accuracy = 6.0E-20, # of iterations =   2

     total cpu time spent up to now is        8.8 secs

     total energy              =   -4888.93200709 Ry
     estimated scf accuracy    <       0.25568213 Ry
     electrostatic embedding   =      -0.02851586 Ry
     electrolyte free energy   =       0.00172904 Ry
     correction to one-el term =      53.59241647 Ry

     iteration #  8     ecut=    40.00 Ry     beta= 0.05
     Davidson diagonalization with overlap
     ethr =  1.07E-04,  avg # of iterations =  7.0

     negative rho (up, down):  6.504E-04 0.000E+00

     add environment contribution to local potential
     Polarization accuracy = 1.9E-18, # of iterations =  37
     Polarization accuracy = 2.9E-20, # of iterations =   1
     Electrolyte accuracy = 1.7E-19, # of iterations =   2

     total cpu time spent up to now is        9.9 secs

     total energy              =   -4888.90942132 Ry
     estimated scf accuracy    <       0.20736741 Ry
     electrostatic embedding   =      -0.02512213 Ry
     electrolyte free energy   =       0.00172904 Ry
     correction to one-el term =      54.50384844 Ry

     iteration #  9     ecut=    40.00 Ry     beta= 0.05
     Davidson diagonalization with overlap
     ethr =  8.71E-05,  avg # of iterations =  4.5

     negative rho (up, down):  7.864E-04 0.000E+00

     add environment contribution to local potential
     Polarization accuracy = 4.8E-19, # of iterations =  38
     Polarization accuracy = 1.1E-20, # of iterations =   1
     Electrolyte accuracy = 4.6E-20, # of iterations =   2

     total cpu time spent up to now is       10.8 secs

     total energy              =   -4888.90323036 Ry
     estimated scf accuracy    <       0.19363525 Ry
     electrostatic embedding   =      -0.01946657 Ry
     electrolyte free energy   =       0.00172904 Ry
     correction to one-el term =      56.51853473 Ry

     iteration # 10     ecut=    40.00 Ry     beta= 0.05
     Davidson diagonalization with overlap
     ethr =  8.14E-05,  avg # of iterations =  5.0

     negative rho (up, down):  2.031E-03 0.000E+00

     add environment contribution to local potential
     Polarization accuracy = 1.3E-18, # of iterations =  41
     Polarization accuracy = 1.7E-19, # of iterations =   1
     Electrolyte accuracy = 1.8E-19, # of iterations =   2

     total cpu time spent up to now is       11.8 secs

     total energy              =   -4888.86961778 Ry
     estimated scf accuracy    <       0.15046246 Ry
     electrostatic embedding   =      -0.01601992 Ry
     electrolyte free energy   =       0.00172904 Ry
     correction to one-el term =      58.45291236 Ry

     iteration # 11     ecut=    40.00 Ry     beta= 0.05
     Davidson diagonalization with overlap
     ethr =  6.32E-05,  avg # of iterations = 12.0

     negative rho (up, down):  1.759E-03 0.000E+00

     add environment contribution to local potential
     Polarization accuracy = 6.0E-19, # of iterations =  41
     Polarization accuracy = 4.6E-20, # of iterations =   1
     Electrolyte accuracy = 7.1E-20, # of iterations =   2

     total cpu time spent up to now is       13.1 secs

     total energy              =   -4888.89363199 Ry
     estimated scf accuracy    <       0.06508662 Ry
     electrostatic embedding   =      -0.00928029 Ry
     electrolyte free energy   =       0.00172904 Ry
     correction to one-el term =      64.84168859 Ry

     iteration # 12     ecut=    40.00 Ry     beta= 0.05
     Davidson diagonalization with overlap
     ethr =  2.73E-05,  avg # of iterations =  2.0

     negative rho (up, down):  1.932E-03 0.000E+00

     add environment contribution to local potential
     Polarization accuracy = 2.1E-18, # of iterations =  41
     Polarization accuracy = 1.6E-19, # of iterations =   1
     Electrolyte accuracy = 2.9E-19, # of iterations =   2

     total cpu time spent up to now is       13.9 secs

     total energy              =   -4888.88947718 Ry
     estimated scf accuracy    <       0.03226365 Ry
     electrostatic embedding   =      -0.00905861 Ry
     electrolyte free energy   =       0.00172904 Ry
     correction to one-el term =      64.82284810 Ry

     iteration # 13     ecut=    40.00 Ry     beta= 0.05
     Davidson diagonalization with overlap
     ethr =  1.36E-05,  avg # of iterations =  4.5

     negative rho (up, down):  2.703E-03 0.000E+00

     add environment contribution to local potential
     Polarization accuracy = 7.2E-19, # of iterations =  42
     Polarization accuracy = 9.0E-20, # of iterations =   1
     Electrolyte accuracy = 9.9E-20, # of iterations =   2

     total cpu time spent up to now is       14.9 secs

     total energy              =   -4888.89301016 Ry
     estimated scf accuracy    <       0.00789272 Ry
     electrostatic embedding   =      -0.00731527 Ry
     electrolyte free energy   =       0.00172904 Ry
     correction to one-el term =      66.79724761 Ry

     iteration # 14     ecut=    40.00 Ry     beta= 0.05
     Davidson diagonalization with overlap
     ethr =  3.32E-06,  avg # of iterations = 14.0

     negative rho (up, down):  2.671E-03 0.000E+00

     add environment contribution to local potential
     Polarization accuracy = 4.7E-18, # of iterations =  41
     Polarization accuracy = 1.8E-19, # of iterations =   1
     Electrolyte accuracy = 6.4E-19, # of iterations =   2

     total cpu time spent up to now is       16.4 secs

     total energy              =   -4888.89413002 Ry
     estimated scf accuracy    <       0.00392938 Ry
     electrostatic embedding   =      -0.00582473 Ry
     electrolyte free energy   =       0.00172904 Ry
     correction to one-el term =      69.82184661 Ry

     iteration # 15     ecut=    40.00 Ry     beta= 0.05
     Davidson diagonalization with overlap
     ethr =  1.65E-06,  avg # of iterations =  3.0

     negative rho (up, down):  3.179E-03 0.000E+00

     add environment contribution to local potential
     Polarization accuracy = 8.0E-19, # of iterations =  42
     Polarization accuracy = 1.0E-19, # of iterations =   1
     Electrolyte accuracy = 9.0E-20, # of iterations =   2

     total cpu time spent up to now is       17.3 secs

     total energy              =   -4888.89457806 Ry
     estimated scf accuracy    <       0.00107818 Ry
     electrostatic embedding   =      -0.00546442 Ry
     electrolyte free energy   =       0.00172904 Ry
     correction to one-el term =      70.43627873 Ry

     iteration # 16     ecut=    40.00 Ry     beta= 0.05
     Davidson diagonalization with overlap
     ethr =  4.53E-07,  avg # of iterations = 14.5

     negative rho (up, down):  3.043E-03 0.000E+00

     add environment contribution to local potential
     Polarization accuracy = 7.9E-19, # of iterations =  42
     Polarization accuracy = 8.8E-20, # of iterations =   1
     Electrolyte accuracy = 8.8E-20, # of iterations =   2

     total cpu time spent up to now is       19.0 secs

     total energy              =   -4888.89479046 Ry
     estimated scf accuracy    <       0.00515825 Ry
     electrostatic embedding   =      -0.00498518 Ry
     electrolyte free energy   =       0.00172904 Ry
     correction to one-el term =      71.63521525 Ry

     iteration # 17     ecut=    40.00 Ry     beta= 0.05
     Davidson diagonalization with overlap
     ethr =  4.53E-07,  avg # of iterations =  1.5

     negative rho (up, down):  3.222E-03 0.000E+00

     add environment contribution to local potential
     Polarization accuracy = 9.4E-19, # of iterations =  42
     Polarization accuracy = 1.2E-19, # of iterations =   1
     Electrolyte accuracy = 1.1E-19, # of iterations =   2

     total cpu time spent up to now is       19.9 secs

     total energy              =   -4888.89488175 Ry
     estimated scf accuracy    <       0.00054837 Ry
     electrostatic embedding   =      -0.00498912 Ry
     electrolyte free energy   =       0.00172904 Ry
     correction to one-el term =      71.73121713 Ry

     iteration # 18     ecut=    40.00 Ry     beta= 0.05
     Davidson diagonalization with overlap
     ethr =  2.30E-07,  avg # of iterations =  2.5

     negative rho (up, down):  3.121E-03 0.000E+00

     add environment contribution to local potential
     Polarization accuracy = 5.0E-18, # of iterations =  41
     Polarization accuracy = 7.7E-19, # of iterations =   1
     Electrolyte accuracy = 9.6E-19, # of iterations =   2

     total cpu time spent up to now is       20.7 secs

     total energy              =   -4888.89460670 Ry
     estimated scf accuracy    <       0.00201916 Ry
     electrostatic embedding   =      -0.00489931 Ry
     electrolyte free energy   =       0.00172904 Ry
     correction to one-el term =      72.06755878 Ry

     iteration # 19     ecut=    40.00 Ry     beta= 0.05
     Davidson diagonalization with overlap
     ethr =  2.30E-07,  avg # of iterations =  7.5

     negative rho (up, down):  3.015E-03 0.000E+00

     add environment contribution to local potential
     Polarization accuracy = 8.0E-19, # of iterations =  42
     Polarization accuracy = 4.1E-20, # of iterations =   1
     Electrolyte accuracy = 3.1E-20, # of iterations =   2

     total cpu time spent up to now is       21.8 secs

     total energy              =   -4888.89477135 Ry
     estimated scf accuracy    <       0.00348263 Ry
     electrostatic embedding   =      -0.00485064 Ry
     electrolyte free energy   =       0.00172904 Ry
     correction to one-el term =      72.23235706 Ry

     iteration # 20     ecut=    40.00 Ry     beta= 0.05
     Davidson diagonalization with overlap
     ethr =  2.30E-07,  avg # of iterations =  2.5

     negative rho (up, down):  3.227E-03 0.000E+00

     add environment contribution to local potential
     Polarization accuracy = 9.1E-19, # of iterations =  42
     Polarization accuracy = 1.1E-19, # of iterations =   1
     Electrolyte accuracy = 1.3E-19, # of iterations =   2

     total cpu time spent up to now is       22.6 secs

     total energy              =   -4888.89494986 Ry
     estimated scf accuracy    <       0.00080568 Ry
     electrostatic embedding   =      -0.00484138 Ry
     electrolyte free energy   =       0.00172904 Ry
     correction to one-el term =      72.27099087 Ry

     iteration # 21     ecut=    40.00 Ry     beta= 0.05
     Davidson diagonalization with overlap
     ethr =  2.30E-07,  avg # of iterations =  2.0

     negative rho (up, down):  3.312E-03 0.000E+00

     add environment contribution to local potential
     Polarization accuracy = 9.4E-19, # of iterations =  42
     Polarization accuracy = 9.7E-20, # of iterations =   1
     Electrolyte accuracy = 8.0E-20, # of iterations =   2

     total cpu time spent up to now is       23.5 secs

     total energy              =   -4888.89506310 Ry
     estimated scf accuracy    <       0.00007780 Ry
     electrostatic embedding   =      -0.00475780 Ry
     electrolyte free energy   =       0.00172904 Ry
     correction to one-el term =      72.53555831 Ry

     iteration # 22     ecut=    40.00 Ry     beta= 0.05
     Davidson diagonalization with overlap
     ethr =  3.27E-08,  avg # of iterations =  1.5

     negative rho (up, down):  3.232E-03 0.000E+00

     add environment contribution to local potential
     Polarization accuracy = 9.9E-19, # of iterations =  42
     Polarization accuracy = 1.3E-19, # of iterations =   1
     Electrolyte accuracy = 1.6E-19, # of iterations =   2

     total cpu time spent up to now is       24.3 secs

     total energy              =   -4888.89509813 Ry
     estimated scf accuracy    <       0.00001665 Ry
     electrostatic embedding   =      -0.00470251 Ry
     electrolyte free energy   =       0.00172904 Ry
     correction to one-el term =      72.68674288 Ry

     iteration # 23     ecut=    40.00 Ry     beta= 0.05
     Davidson diagonalization with overlap
     ethr =  6.99E-09,  avg # of iterations =  2.0

     negative rho (up, down):  3.318E-03 0.000E+00

     add environment contribution to local potential
     Polarization accuracy = 9.3E-19, # of iterations =  42
     Polarization accuracy = 1.3E-19, # of iterations =   1
     Electrolyte accuracy = 9.8E-20, # of iterations =   2

     total cpu time spent up to now is       25.2 secs

     total energy              =   -4888.89508927 Ry
     estimated scf accuracy    <       0.00028330 Ry
     electrostatic embedding   =      -0.00467175 Ry
     electrolyte free energy   =       0.00172904 Ry
     correction to one-el term =      72.75847185 Ry

     iteration # 24     ecut=    40.00 Ry     beta= 0.05
     Davidson diagonalization with overlap
     ethr =  6.99E-09,  avg # of iterations =  8.5

     negative rho (up, down):  3.208E-03 0.000E+00

     add environment contribution to local potential
     Polarization accuracy = 7.9E-19, # of iterations =  42
     Polarization accuracy = 1.1E-19, # of iterations =   1
     Electrolyte accuracy = 8.4E-20, # of iterations =   2

     total cpu time spent up to now is       26.3 secs

     total energy              =   -4888.89514627 Ry
     estimated scf accuracy    <       0.00014037 Ry
     electrostatic embedding   =      -0.00464488 Ry
     electrolyte free energy   =       0.00172904 Ry
     correction to one-el term =      72.91053399 Ry

     iteration # 25     ecut=    40.00 Ry     beta= 0.05
     Davidson diagonalization with overlap
     ethr =  6.99E-09,  avg # of iterations =  1.0

     negative rho (up, down):  3.015E-03 0.000E+00

     add environment contribution to local potential
     Polarization accuracy = 4.8E-18, # of iterations =  41
     Polarization accuracy = 6.6E-19, # of iterations =   1
     Electrolyte accuracy = 8.2E-19, # of iterations =   2

     total cpu time spent up to now is       27.1 secs

     total energy              =   -4888.89517930 Ry
     estimated scf accuracy    <       0.00019423 Ry
     electrostatic embedding   =      -0.00464468 Ry
     electrolyte free energy   =       0.00172904 Ry
     correction to one-el term =      72.92943451 Ry

     iteration # 26     ecut=    40.00 Ry     beta= 0.05
     Davidson diagonalization with overlap
     ethr =  6.99E-09,  avg # of iterations =  2.0

     negative rho (up, down):  2.901E-03 0.000E+00

     add environment contribution to local potential
     Polarization accuracy = 4.2E-18, # of iterations =  41
     Polarization accuracy = 1.8E-19, # of iterations =   1
     Electrolyte accuracy = 6.7E-19, # of iterations =   2

     total cpu time spent up to now is       28.0 secs

     total energy              =   -4888.89521713 Ry
     estimated scf accuracy    <       0.00092843 Ry
     electrostatic embedding   =      -0.00465271 Ry
     electrolyte free energy   =       0.00172904 Ry
     correction to one-el term =      72.92071066 Ry

     iteration # 27     ecut=    40.00 Ry     beta= 0.05
     Davidson diagonalization with overlap
     ethr =  6.99E-09,  avg # of iterations =  2.0

     negative rho (up, down):  2.775E-03 0.000E+00

     add environment contribution to local potential
     Polarization accuracy = 3.6E-18, # of iterations =  41
     Polarization accuracy = 1.5E-19, # of iterations =   1
     Electrolyte accuracy = 2.9E-19, # of iterations =   2

     total cpu time spent up to now is       28.8 secs

     total energy              =   -4888.89525833 Ry
     estimated scf accuracy    <       0.00137738 Ry
     electrostatic embedding   =      -0.00465569 Ry
     electrolyte free energy   =       0.00172904 Ry
     correction to one-el term =      72.93381267 Ry

     iteration # 28     ecut=    40.00 Ry     beta= 0.05
     Davidson diagonalization with overlap
     ethr =  6.99E-09,  avg # of iterations =  7.0

     negative rho (up, down):  2.632E-03 0.000E+00

     add environment contribution to local potential
     Polarization accuracy = 3.1E-18, # of iterations =  41
     Polarization accuracy = 1.3E-19, # of iterations =   1
     Electrolyte accuracy = 3.7E-19, # of iterations =   2

     total cpu time spent up to now is       29.8 secs

     total energy              =   -4888.89529956 Ry
     estimated scf accuracy    <       0.00217315 Ry
     electrostatic embedding   =      -0.00466105 Ry
     electrolyte free energy   =       0.00172904 Ry
     correction to one-el term =      72.93754991 Ry

     iteration # 29     ecut=    40.00 Ry     beta= 0.05
     Davidson diagonalization with overlap
     ethr =  6.99E-09,  avg # of iterations =  1.5

     negative rho (up, down):  2.512E-03 0.000E+00

     add environment contribution to local potential
     Polarization accuracy = 2.7E-18, # of iterations =  41
     Polarization accuracy = 2.6E-19, # of iterations =   1
     Electrolyte accuracy = 8.1E-19, # of iterations =   2

     total cpu time spent up to now is       30.6 secs

     total energy              =   -4888.89534175 Ry
     estimated scf accuracy    <       0.00296827 Ry
     electrostatic embedding   =      -0.00466720 Ry
     electrolyte free energy   =       0.00172904 Ry
     correction to one-el term =      72.92929024 Ry

     iteration # 30     ecut=    40.00 Ry     beta= 0.05
     Davidson diagonalization with overlap
     ethr =  6.99E-09,  avg # of iterations =  1.5

     negative rho (up, down):  2.443E-03 0.000E+00

     add environment contribution to local potential
     Polarization accuracy = 2.4E-18, # of iterations =  41
     Polarization accuracy = 1.0E-19, # of iterations =   1
     Electrolyte accuracy = 2.8E-19, # of iterations =   2

     total cpu time spent up to now is       31.4 secs

     total energy              =   -4888.89541225 Ry
     estimated scf accuracy    <       0.00374183 Ry
     electrostatic embedding   =      -0.00467332 Ry
     electrolyte free energy   =       0.00172904 Ry
     correction to one-el term =      72.92546121 Ry

     iteration # 31     ecut=    40.00 Ry     beta= 0.05
     Davidson diagonalization with overlap
     ethr =  6.99E-09,  avg # of iterations =  7.0

     negative rho (up, down):  2.330E-03 0.000E+00

     add environment contribution to local potential
     Polarization accuracy = 2.1E-18, # of iterations =  41
     Polarization accuracy = 8.6E-20, # of iterations =   1
     Electrolyte accuracy = 1.9E-19, # of iterations =   2

     total cpu time spent up to now is       32.5 secs

     total energy              =   -4888.89545864 Ry
     estimated scf accuracy    <       0.00486522 Ry
     electrostatic embedding   =      -0.00467270 Ry
     electrolyte free energy   =       0.00172904 Ry
     correction to one-el term =      72.94125388 Ry

     iteration # 32     ecut=    40.00 Ry     beta= 0.05
     Davidson diagonalization with overlap
     ethr =  6.99E-09,  avg # of iterations =  6.5

     negative rho (up, down):  2.217E-03 0.000E+00

     add environment contribution to local potential
     Polarization accuracy = 1.8E-18, # of iterations =  41
     Polarization accuracy = 7.7E-20, # of iterations =   1
     Electrolyte accuracy = 2.3E-19, # of iterations =   2

     total cpu time spent up to now is       33.5 secs

     total energy              =   -4888.89550063 Ry
     estimated scf accuracy    <       0.00597139 Ry
     electrostatic embedding   =      -0.00467939 Ry
     electrolyte free energy   =       0.00172904 Ry
     correction to one-el term =      72.93525650 Ry

     iteration # 33     ecut=    40.00 Ry     beta= 0.05
     Davidson diagonalization with overlap
     ethr =  6.99E-09,  avg # of iterations =  1.0

     negative rho (up, down):  2.237E-03 0.000E+00

     add environment contribution to local potential
     Polarization accuracy = 1.7E-18, # of iterations =  41
     Polarization accuracy = 7.1E-20, # of iterations =   1
     Electrolyte accuracy = 2.2E-19, # of iterations =   2

     total cpu time spent up to now is       34.3 secs

     total energy              =   -4888.89557159 Ry
     estimated scf accuracy    <       0.00693800 Ry
     electrostatic embedding   =      -0.00468755 Ry
     electrolyte free energy   =       0.00172904 Ry
     correction to one-el term =      72.92157471 Ry

     iteration # 34     ecut=    40.00 Ry     beta= 0.05
     Davidson diagonalization with overlap
     ethr =  6.99E-09,  avg # of iterations =  1.0

     negative rho (up, down):  2.158E-03 0.000E+00

     add environment contribution to local potential
     Polarization accuracy = 1.5E-18, # of iterations =  41
     Polarization accuracy = 2.1E-19, # of iterations =   1
     Electrolyte accuracy = 3.5E-19, # of iterations =   2

     total cpu time spent up to now is       35.1 secs

     total energy              =   -4888.89561390 Ry
     estimated scf accuracy    <       0.00768299 Ry
     electrostatic embedding   =      -0.00467839 Ry
     electrolyte free energy   =       0.00172904 Ry
     correction to one-el term =      72.96596962 Ry

     iteration # 35     ecut=    40.00 Ry     beta= 0.05
     Davidson diagonalization with overlap
     ethr =  6.99E-09,  avg # of iterations =  1.0

     negative rho (up, down):  2.099E-03 0.000E+00

     add environment contribution to local potential
     Polarization accuracy = 1.4E-18, # of iterations =  41
     Polarization accuracy = 5.9E-20, # of iterations =   1
     Electrolyte accuracy = 3.9E-19, # of iterations =   2

     total cpu time spent up to now is       35.9 secs

     total energy              =   -4888.89565070 Ry
     estimated scf accuracy    <       0.00884413 Ry
     electrostatic embedding   =      -0.00468093 Ry
     electrolyte free energy   =       0.00172904 Ry
     correction to one-el term =      72.96422935 Ry

     iteration # 36     ecut=    40.00 Ry     beta= 0.05
     Davidson diagonalization with overlap
     ethr =  6.99E-09,  avg # of iterations =  1.0

     negative rho (up, down):  2.045E-03 0.000E+00

     add environment contribution to local potential
     Polarization accuracy = 1.3E-18, # of iterations =  41
     Polarization accuracy = 1.7E-19, # of iterations =   1
     Electrolyte accuracy = 4.1E-19, # of iterations =   2

     total cpu time spent up to now is       36.7 secs

     total energy              =   -4888.89569514 Ry
     estimated scf accuracy    <       0.00964017 Ry
     electrostatic embedding   =      -0.00468348 Ry
     electrolyte free energy   =       0.00172904 Ry
     correction to one-el term =      72.96616830 Ry

     iteration # 37     ecut=    40.00 Ry     beta= 0.05
     Davidson diagonalization with overlap
     ethr =  6.99E-09,  avg # of iterations =  1.5

     negative rho (up, down):  2.013E-03 0.000E+00

     add environment contribution to local potential
     Polarization accuracy = 1.2E-18, # of iterations =  41
     Polarization accuracy = 4.9E-20, # of iterations =   1
     Electrolyte accuracy = 1.2E-19, # of iterations =   2

     total cpu time spent up to now is       37.5 secs

     total energy              =   -4888.89573173 Ry
     estimated scf accuracy    <       0.01049067 Ry
     electrostatic embedding   =      -0.00468562 Ry
     electrolyte free energy   =       0.00172904 Ry
     correction to one-el term =      72.96671561 Ry

     iteration # 38     ecut=    40.00 Ry     beta= 0.05
     Davidson diagonalization with overlap
     ethr =  6.99E-09,  avg # of iterations =  1.0

     negative rho (up, down):  1.953E-03 0.000E+00

     add environment contribution to local potential
     Polarization accuracy = 1.1E-18, # of iterations =  41
     Polarization accuracy = 1.1E-19, # of iterations =   1
     Electrolyte accuracy = 3.5E-19, # of iterations =   2

     total cpu time spent up to now is       38.2 secs

     total energy              =   -4888.89570237 Ry
     estimated scf accuracy    <       0.01125730 Ry
     electrostatic embedding   =      -0.00468881 Ry
     electrolyte free energy   =       0.00172904 Ry
     correction to one-el term =      72.97175778 Ry

     iteration # 39     ecut=    40.00 Ry     beta= 0.05
     Davidson diagonalization with overlap
     ethr =  6.99E-09,  avg # of iterations =  1.5

     negative rho (up, down):  1.992E-03 0.000E+00

     add environment contribution to local potential
     Polarization accuracy = 4.8E-18, # of iterations =  40
     Polarization accuracy = 3.4E-19, # of iterations =   1
     Electrolyte accuracy = 1.7E-18, # of iterations =   2

     total cpu time spent up to now is       39.0 secs

     total energy              =   -4888.89592630 Ry
     estimated scf accuracy    <       0.01109883 Ry
     electrostatic embedding   =      -0.00469278 Ry
     electrolyte free energy   =       0.00172904 Ry
     correction to one-el term =      72.96012325 Ry

     iteration # 40     ecut=    40.00 Ry     beta= 0.05
     Davidson diagonalization with overlap
     ethr =  6.99E-09,  avg # of iterations =  7.0

     negative rho (up, down):  1.921E-03 0.000E+00

     add environment contribution to local potential
     Polarization accuracy = 4.4E-18, # of iterations =  40
     Polarization accuracy = 2.6E-19, # of iterations =   1
     Electrolyte accuracy = 4.3E-18, # of iterations =   2

     total cpu time spent up to now is       40.1 secs

     total energy              =   -4888.89573683 Ry
     estimated scf accuracy    <       0.01368622 Ry
     electrostatic embedding   =      -0.00467921 Ry
     electrolyte free energy   =       0.00172904 Ry
     correction to one-el term =      73.00300898 Ry

     iteration # 41     ecut=    40.00 Ry     beta= 0.05
     Davidson diagonalization with overlap
     ethr =  6.99E-09,  avg # of iterations =  1.0

     negative rho (up, down):  1.875E-03 0.000E+00

     add environment contribution to local potential
     Polarization accuracy = 4.1E-18, # of iterations =  40
     Polarization accuracy = 2.0E-19, # of iterations =   1
     Electrolyte accuracy = 4.7E-19, # of iterations =   2

     total cpu time spent up to now is       40.8 secs

     total energy              =   -4888.89585084 Ry
     estimated scf accuracy    <       0.01274203 Ry
     electrostatic embedding   =      -0.00469565 Ry
     electrolyte free energy   =       0.00172904 Ry
     correction to one-el term =      72.98039341 Ry

     iteration # 42     ecut=    40.00 Ry     beta= 0.05
     Davidson diagonalization with overlap
     ethr =  6.99E-09,  avg # of iterations =  1.0

     negative rho (up, down):  1.749E-03 0.000E+00

     add environment contribution to local potential
     Polarization accuracy = 3.7E-18, # of iterations =  40
     Polarization accuracy = 1.7E-19, # of iterations =   1
     Electrolyte accuracy = 7.0E-19, # of iterations =   2

     total cpu time spent up to now is       41.6 secs

     total energy              =   -4888.89587224 Ry
     estimated scf accuracy    <       0.01313403 Ry
     electrostatic embedding   =      -0.00469559 Ry
     electrolyte free energy   =       0.00172904 Ry
     correction to one-el term =      72.97396330 Ry

     iteration # 43     ecut=    40.00 Ry     beta= 0.05
     Davidson diagonalization with overlap
     ethr =  6.99E-09,  avg # of iterations =  1.0

     negative rho (up, down):  1.842E-03 0.000E+00

     add environment contribution to local potential
     Polarization accuracy = 3.6E-18, # of iterations =  40
     Polarization accuracy = 1.7E-19, # of iterations =   1
     Electrolyte accuracy = 3.4E-19, # of iterations =   2

     total cpu time spent up to now is       42.4 secs

     total energy              =   -4888.89605205 Ry
     estimated scf accuracy    <       0.01423929 Ry
     electrostatic embedding   =      -0.00470974 Ry
     electrolyte free energy   =       0.00172904 Ry
     correction to one-el term =      72.92365796 Ry

     iteration # 44     ecut=    40.00 Ry     beta= 0.05
     Davidson diagonalization with overlap
     ethr =  6.99E-09,  avg # of iterations =  1.0

     negative rho (up, down):  1.778E-03 0.000E+00

     add environment contribution to local potential
     Polarization accuracy = 3.4E-18, # of iterations =  40
     Polarization accuracy = 1.7E-19, # of iterations =   1
     Electrolyte accuracy = 6.7E-19, # of iterations =   2

     total cpu time spent up to now is       43.1 secs

     total energy              =   -4888.89584637 Ry
     estimated scf accuracy    <       0.01600323 Ry
     electrostatic embedding   =      -0.00469327 Ry
     electrolyte free energy   =       0.00172904 Ry
     correction to one-el term =      72.99328220 Ry

     iteration # 45     ecut=    40.00 Ry     beta= 0.05
     Davidson diagonalization with overlap
     ethr =  6.99E-09,  avg # of iterations =  1.0

     negative rho (up, down):  1.777E-03 0.000E+00

     add environment contribution to local potential
     Polarization accuracy = 3.3E-18, # of iterations =  40
     Polarization accuracy = 1.7E-19, # of iterations =   1
     Electrolyte accuracy = 9.1E-19, # of iterations =   2

     total cpu time spent up to now is       43.9 secs

     total energy              =   -4888.89595971 Ry
     estimated scf accuracy    <       0.01489359 Ry
     electrostatic embedding   =      -0.00470134 Ry
     electrolyte free energy   =       0.00172904 Ry
     correction to one-el term =      72.95963266 Ry

     iteration # 46     ecut=    40.00 Ry     beta= 0.05
     Davidson diagonalization with overlap
     ethr =  6.99E-09,  avg # of iterations =  1.0

     negative rho (up, down):  1.783E-03 0.000E+00

     add environment contribution to local potential
     Polarization accuracy = 3.3E-18, # of iterations =  40
     Polarization accuracy = 1.7E-19, # of iterations =   1
     Electrolyte accuracy = 1.1E-18, # of iterations =   2

     total cpu time spent up to now is       44.7 secs

     total energy              =   -4888.89570782 Ry
     estimated scf accuracy    <       0.01544426 Ry
     electrostatic embedding   =      -0.00470110 Ry
     electrolyte free energy   =       0.00172904 Ry
     correction to one-el term =      72.96524968 Ry

     iteration # 47     ecut=    40.00 Ry     beta= 0.05
     Davidson diagonalization with overlap
     ethr =  6.99E-09,  avg # of iterations =  1.0

     negative rho (up, down):  1.699E-03 0.000E+00

     add environment contribution to local potential
     Polarization accuracy = 3.3E-18, # of iterations =  40
     Polarization accuracy = 1.8E-19, # of iterations =   1
     Electrolyte accuracy = 1.1E-18, # of iterations =   2

     total cpu time spent up to now is       45.5 secs

     total energy              =   -4888.89579962 Ry
     estimated scf accuracy    <       0.01255807 Ry
     electrostatic embedding   =      -0.00470991 Ry
     electrolyte free energy   =       0.00172904 Ry
     correction to one-el term =      72.96223207 Ry

     iteration # 48     ecut=    40.00 Ry     beta= 0.05
     Davidson diagonalization with overlap
     ethr =  6.99E-09,  avg # of iterations =  1.0

     negative rho (up, down):  1.685E-03 0.000E+00

     add environment contribution to local potential
     Polarization accuracy = 3.3E-18, # of iterations =  40
     Polarization accuracy = 1.9E-19, # of iterations =   1
     Electrolyte accuracy = 4.6E-18, # of iterations =   2

     total cpu time spent up to now is       46.3 secs

     total energy              =   -4888.89570393 Ry
     estimated scf accuracy    <       0.01186107 Ry
     electrostatic embedding   =      -0.00471134 Ry
     electrolyte free energy   =       0.00172904 Ry
     correction to one-el term =      72.93042203 Ry

     iteration # 49     ecut=    40.00 Ry     beta= 0.05
     Davidson diagonalization with overlap
     ethr =  6.99E-09,  avg # of iterations =  2.0

     negative rho (up, down):  1.686E-03 0.000E+00

     add environment contribution to local potential
     Polarization accuracy = 3.2E-18, # of iterations =  40
     Polarization accuracy = 1.6E-19, # of iterations =   1
     Electrolyte accuracy = 5.3E-19, # of iterations =   2

     total cpu time spent up to now is       47.1 secs

     total energy              =   -4888.89569779 Ry
     estimated scf accuracy    <       0.00977054 Ry
     electrostatic embedding   =      -0.00472297 Ry
     electrolyte free energy   =       0.00172904 Ry
     correction to one-el term =      72.93846598 Ry

     iteration # 50     ecut=    40.00 Ry     beta= 0.05
     Davidson diagonalization with overlap
     ethr =  6.99E-09,  avg # of iterations =  1.0

     negative rho (up, down):  1.586E-03 0.000E+00

     add environment contribution to local potential
     Polarization accuracy = 3.0E-18, # of iterations =  40
     Polarization accuracy = 1.8E-19, # of iterations =   1
     Electrolyte accuracy = 6.4E-18, # of iterations =   2

     total cpu time spent up to now is       47.9 secs

     total energy              =   -4888.89524992 Ry
     estimated scf accuracy    <       0.00956415 Ry
     electrostatic embedding   =      -0.00472550 Ry
     electrolyte free energy   =       0.00172904 Ry
     correction to one-el term =      72.92203091 Ry

     iteration # 51     ecut=    40.00 Ry     beta= 0.05
     Davidson diagonalization with overlap
     ethr =  6.99E-09,  avg # of iterations =  2.0

     negative rho (up, down):  1.511E-03 0.000E+00

     add environment contribution to local potential
     Polarization accuracy = 2.6E-18, # of iterations =  40
     Polarization accuracy = 1.2E-19, # of iterations =   1
     Electrolyte accuracy = 6.8E-19, # of iterations =   2

     total cpu time spent up to now is       48.8 secs

     total energy              =   -4888.89615347 Ry
     estimated scf accuracy    <       0.00478767 Ry
     electrostatic embedding   =      -0.00480382 Ry
     electrolyte free energy   =       0.00172904 Ry
     correction to one-el term =      72.84651114 Ry

     iteration # 52     ecut=    40.00 Ry     beta= 0.05
     Davidson diagonalization with overlap
     ethr =  6.99E-09,  avg # of iterations =  2.0

     negative rho (up, down):  2.024E-03 0.000E+00

     add environment contribution to local potential
     Polarization accuracy = 3.2E-18, # of iterations =  40
     Polarization accuracy = 1.8E-19, # of iterations =   1
     Electrolyte accuracy = 3.0E-18, # of iterations =   2

     total cpu time spent up to now is       49.7 secs

     total energy              =   -4888.89550269 Ry
     estimated scf accuracy    <       0.01357044 Ry
     electrostatic embedding   =      -0.00474524 Ry
     electrolyte free energy   =       0.00172904 Ry
     correction to one-el term =      72.82627152 Ry

     iteration # 53     ecut=    40.00 Ry     beta= 0.05
     Davidson diagonalization with overlap
     ethr =  6.99E-09,  avg # of iterations =  2.0

     negative rho (up, down):  1.731E-03 0.000E+00

     add environment contribution to local potential
     Polarization accuracy = 2.8E-18, # of iterations =  40
     Polarization accuracy = 1.6E-19, # of iterations =   1
     Electrolyte accuracy = 3.4E-18, # of iterations =   2

     total cpu time spent up to now is       50.6 secs

     total energy              =   -4888.89529251 Ry
     estimated scf accuracy    <       0.00780743 Ry
     electrostatic embedding   =      -0.00471355 Ry
     electrolyte free energy   =       0.00172904 Ry
     correction to one-el term =      73.07599288 Ry

     iteration # 54     ecut=    40.00 Ry     beta= 0.05
     Davidson diagonalization with overlap
     ethr =  6.99E-09,  avg # of iterations =  2.0

     negative rho (up, down):  1.934E-03 0.000E+00

     add environment contribution to local potential
     Polarization accuracy = 2.8E-18, # of iterations =  40
     Polarization accuracy = 1.5E-19, # of iterations =   1
     Electrolyte accuracy = 3.8E-18, # of iterations =   2

     total cpu time spent up to now is       51.5 secs

     total energy              =   -4888.89529132 Ry
     estimated scf accuracy    <       0.00427749 Ry
     electrostatic embedding   =      -0.00480338 Ry
     electrolyte free energy   =       0.00172904 Ry
     correction to one-el term =      72.90571237 Ry

     iteration # 55     ecut=    40.00 Ry     beta= 0.05
     Davidson diagonalization with overlap
     ethr =  6.99E-09,  avg # of iterations =  2.0

     negative rho (up, down):  1.879E-03 0.000E+00

     add environment contribution to local potential
     Polarization accuracy = 2.8E-18, # of iterations =  40
     Polarization accuracy = 1.4E-19, # of iterations =   1
     Electrolyte accuracy = 3.2E-19, # of iterations =   2

     total cpu time spent up to now is       52.3 secs

     total energy              =   -4888.89549555 Ry
     estimated scf accuracy    <       0.00137193 Ry
     electrostatic embedding   =      -0.00485265 Ry
     electrolyte free energy   =       0.00172904 Ry
     correction to one-el term =      72.99462731 Ry

     iteration # 56     ecut=    40.00 Ry     beta= 0.05
     Davidson diagonalization with overlap
     ethr =  6.99E-09,  avg # of iterations =  1.0

     negative rho (up, down):  1.779E-03 0.000E+00

     add environment contribution to local potential
     Polarization accuracy = 2.9E-18, # of iterations =  40
     Polarization accuracy = 1.4E-19, # of iterations =   1
     Electrolyte accuracy = 3.5E-19, # of iterations =   2

     total cpu time spent up to now is       53.1 secs

     total energy              =   -4888.89552867 Ry
     estimated scf accuracy    <       0.00132521 Ry
     electrostatic embedding   =      -0.00487058 Ry
     electrolyte free energy   =       0.00172904 Ry
     correction to one-el term =      72.96998338 Ry

     iteration # 57     ecut=    40.00 Ry     beta= 0.05
     Davidson diagonalization with overlap
     ethr =  6.99E-09,  avg # of iterations =  1.0

     negative rho (up, down):  1.908E-03 0.000E+00

     add environment contribution to local potential
     Polarization accuracy = 2.6E-18, # of iterations =  40
     Polarization accuracy = 1.4E-19, # of iterations =   1
     Electrolyte accuracy = 4.6E-19, # of iterations =   2

     total cpu time spent up to now is       53.9 secs

     total energy              =   -4888.89554691 Ry
     estimated scf accuracy    <       0.00132775 Ry
     electrostatic embedding   =      -0.00485836 Ry
     electrolyte free energy   =       0.00172904 Ry
     correction to one-el term =      72.93275421 Ry

     iteration # 58     ecut=    40.00 Ry     beta= 0.05
     Davidson diagonalization with overlap
     ethr =  6.99E-09,  avg # of iterations =  1.0

     negative rho (up, down):  1.897E-03 0.000E+00

     add environment contribution to local potential
     Polarization accuracy = 2.7E-18, # of iterations =  40
     Polarization accuracy = 1.4E-19, # of iterations =   1
     Electrolyte accuracy = 6.9E-19, # of iterations =   2

     total cpu time spent up to now is       54.7 secs

     total energy              =   -4888.89544361 Ry
     estimated scf accuracy    <       0.00190882 Ry
     electrostatic embedding   =      -0.00485498 Ry
     electrolyte free energy   =       0.00172904 Ry
     correction to one-el term =      72.97756267 Ry

     iteration # 59     ecut=    40.00 Ry     beta= 0.05
     Davidson diagonalization with overlap
     ethr =  6.99E-09,  avg # of iterations =  1.0

     negative rho (up, down):  1.866E-03 0.000E+00

     add environment contribution to local potential
     Polarization accuracy = 2.6E-18, # of iterations =  40
     Polarization accuracy = 1.3E-19, # of iterations =   1
     Electrolyte accuracy = 6.3E-19, # of iterations =   2

     total cpu time spent up to now is       55.4 secs

     total energy              =   -4888.89554329 Ry
     estimated scf accuracy    <       0.00117250 Ry
     electrostatic embedding   =      -0.00488307 Ry
     electrolyte free energy   =       0.00172904 Ry
     correction to one-el term =      72.95620966 Ry

     iteration # 60     ecut=    40.00 Ry     beta= 0.05
     Davidson diagonalization with overlap
     ethr =  6.99E-09,  avg # of iterations =  1.0

     negative rho (up, down):  2.035E-03 0.000E+00

     add environment contribution to local potential
     Polarization accuracy = 2.6E-18, # of iterations =  40
     Polarization accuracy = 5.1E-19, # of iterations =   1
     Electrolyte accuracy = 8.5E-19, # of iterations =   2

     total cpu time spent up to now is       56.2 secs

     total energy              =   -4888.89533362 Ry
     estimated scf accuracy    <       0.00137440 Ry
     electrostatic embedding   =      -0.00488110 Ry
     electrolyte free energy   =       0.00172904 Ry
     correction to one-el term =      72.95430987 Ry

     iteration # 61     ecut=    40.00 Ry     beta= 0.05
     Davidson diagonalization with overlap
     ethr =  6.99E-09,  avg # of iterations =  2.0

     negative rho (up, down):  2.168E-03 0.000E+00

     add environment contribution to local potential
     Polarization accuracy = 2.5E-18, # of iterations =  40
     Polarization accuracy = 1.2E-19, # of iterations =   1
     Electrolyte accuracy = 3.1E-19, # of iterations =   2

     total cpu time spent up to now is       57.1 secs

     total energy              =   -4888.89546799 Ry
     estimated scf accuracy    <       0.00012525 Ry
     electrostatic embedding   =      -0.00495413 Ry
     electrolyte free energy   =       0.00172904 Ry
     correction to one-el term =      72.99512385 Ry

     iteration # 62     ecut=    40.00 Ry     beta= 0.05
     Davidson diagonalization with overlap
     ethr =  6.99E-09,  avg # of iterations =  1.0

     negative rho (up, down):  2.327E-03 0.000E+00

     add environment contribution to local potential
     Polarization accuracy = 2.5E-18, # of iterations =  40
     Polarization accuracy = 1.2E-19, # of iterations =   1
     Electrolyte accuracy = 3.6E-19, # of iterations =   2

     total cpu time spent up to now is       57.9 secs

     total energy              =   -4888.89548392 Ry
     estimated scf accuracy    <       0.00001497 Ry
     electrostatic embedding   =      -0.00498434 Ry
     electrolyte free energy   =       0.00172904 Ry
     correction to one-el term =      73.04268663 Ry

     iteration # 63     ecut=    40.00 Ry     beta= 0.05
     Davidson diagonalization with overlap
     ethr =  6.29E-09,  avg # of iterations =  1.5

     negative rho (up, down):  2.300E-03 0.000E+00

     add environment contribution to local potential
     Polarization accuracy = 2.4E-18, # of iterations =  40
     Polarization accuracy = 1.2E-19, # of iterations =   1
     Electrolyte accuracy = 2.2E-19, # of iterations =   2

     total cpu time spent up to now is       58.7 secs

     total energy              =   -4888.89548675 Ry
     estimated scf accuracy    <       0.00000881 Ry
     electrostatic embedding   =      -0.00498607 Ry
     electrolyte free energy   =       0.00172904 Ry
     correction to one-el term =      73.12010891 Ry

     iteration # 64     ecut=    40.00 Ry     beta= 0.05
     Davidson diagonalization with overlap
     ethr =  3.70E-09,  avg # of iterations =  1.0

     negative rho (up, down):  2.319E-03 0.000E+00

     add environment contribution to local potential
     Polarization accuracy = 2.3E-18, # of iterations =  40
     Polarization accuracy = 1.1E-19, # of iterations =   1
     Electrolyte accuracy = 6.8E-19, # of iterations =   2

     total cpu time spent up to now is       59.4 secs

     total energy              =   -4888.89548639 Ry
     estimated scf accuracy    <       0.00001398 Ry
     electrostatic embedding   =      -0.00498512 Ry
     electrolyte free energy   =       0.00172904 Ry
     correction to one-el term =      73.11857061 Ry

     iteration # 65     ecut=    40.00 Ry     beta= 0.05
     Davidson diagonalization with overlap
     ethr =  3.70E-09,  avg # of iterations =  1.0

     negative rho (up, down):  2.043E-03 0.000E+00

     add environment contribution to local potential
     Polarization accuracy = 1.9E-18, # of iterations =  40
     Polarization accuracy = 9.1E-20, # of iterations =   1
     Electrolyte accuracy = 2.2E-19, # of iterations =   2

     total cpu time spent up to now is       60.2 secs

     total energy              =   -4888.89549149 Ry
     estimated scf accuracy    <       0.00000583 Ry
     electrostatic embedding   =      -0.00500694 Ry
     electrolyte free energy   =       0.00172904 Ry
     correction to one-el term =      73.12088504 Ry

     iteration # 66     ecut=    40.00 Ry     beta= 0.05
     Davidson diagonalization with overlap
     ethr =  2.45E-09,  avg # of iterations =  2.0

     negative rho (up, down):  1.976E-03 0.000E+00

     add environment contribution to local potential
     Polarization accuracy = 1.8E-18, # of iterations =  40
     Polarization accuracy = 1.0E-19, # of iterations =   1
     Electrolyte accuracy = 1.9E-19, # of iterations =   2

     total cpu time spent up to now is       61.1 secs

     total energy              =   -4888.89548252 Ry
     estimated scf accuracy    <       0.00005728 Ry
     electrostatic embedding   =      -0.00509218 Ry
     electrolyte free energy   =       0.00172904 Ry
     correction to one-el term =      73.01872689 Ry

     iteration # 67     ecut=    40.00 Ry     beta= 0.05
     Davidson diagonalization with overlap
     ethr =  2.45E-09,  avg # of iterations =  1.0

     negative rho (up, down):  1.853E-03 0.000E+00

     add environment contribution to local potential
     Polarization accuracy = 1.7E-18, # of iterations =  40
     Polarization accuracy = 8.2E-20, # of iterations =   1
     Electrolyte accuracy = 1.9E-19, # of iterations =   2

     total cpu time spent up to now is       61.9 secs

     total energy              =   -4888.89549161 Ry
     estimated scf accuracy    <       0.00001006 Ry
     electrostatic embedding   =      -0.00506594 Ry
     electrolyte free energy   =       0.00172904 Ry
     correction to one-el term =      72.99222676 Ry

     iteration # 68     ecut=    40.00 Ry     beta= 0.05
     Davidson diagonalization with overlap
     ethr =  2.45E-09,  avg # of iterations =  1.5

     negative rho (up, down):  1.915E-03 0.000E+00

     total cpu time spent up to now is      854.1 secs

     End of self-consistent calculation

          k = 0.2500 0.1443 0.0000 ( 19495 PWs)   bands (ev):

  -117.3767-117.3704-117.3316-117.2199-117.1323-116.9820-116.9769-116.9543
  -116.9090-116.8473-116.8424-116.7486 -74.9239 -74.8954 -74.8467 -74.7318
   -74.7241 -74.6727 -74.6601 -74.6574 -74.6472 -74.6326 -74.6223 -74.5629
   -74.5436 -74.5248 -74.5027 -74.4192 -74.4063 -74.3967 -74.3865 -74.3624
   -74.3581 -74.3525 -74.3508 -74.3388 -74.3147 -74.3134 -74.2970 -74.2665
   -74.2406 -74.2330 -74.2264 -74.1964 -74.1920 -74.1813 -74.1295 -74.1203
   -27.9734 -15.1166 -12.8028 -12.0143 -11.4955 -11.4347 -10.4178  -9.8440
    -9.3616  -9.2463  -9.2410  -9.1316  -9.0257  -8.9806  -8.7412  -8.6726
    -8.6542  -8.5499  -8.5427  -8.4845  -8.1333  -8.1127  -8.0347  -7.9413
    -7.8237  -7.7340  -7.7096  -7.6672  -7.6635  -7.6401  -7.5902  -7.4916
    -7.4702  -7.4157  -7.3698  -7.3605  -7.3242  -7.2972  -7.2752  -7.1592
    -7.0984  -7.0702  -7.0047  -6.9661  -6.9075  -6.8604  -6.8135  -6.7622
    -6.7542  -6.7409  -6.6323  -6.5893  -6.5772  -6.4908  -6.4199  -6.3903
    -6.3797  -6.3593  -6.3106  -6.2737  -6.2619  -6.2257  -6.1887  -6.1639
    -6.1471  -6.0968  -6.0592  -6.0428  -5.5546  -4.9247  -4.7500  -4.3850
    -4.0043  -3.7886  -3.3269  -2.6383  -2.1256  -1.7659  -1.1565  -0.5175
    -0.1614   0.1162   0.2147   0.4565   0.5933   0.8491   1.0786   1.2390
     1.7266   1.8077   2.1363   2.1858   2.5366   3.1194   3.6307

          k = 0.2500-0.4330 0.0000 ( 19534 PWs)   bands (ev):

  -117.3755-117.3716-117.3316-117.2199-117.1324-116.9803-116.9786-116.9542
  -116.9091-116.8456-116.8441-116.7486 -74.9121 -74.9063 -74.8462 -74.7294
   -74.7258 -74.6640 -74.6604 -74.6545 -74.6482 -74.6418 -74.6151 -74.5624
   -74.5437 -74.5342 -74.5025 -74.4058 -74.4009 -74.3862 -74.3753 -74.3727
   -74.3648 -74.3600 -74.3551 -74.3496 -74.3130 -74.3086 -74.2868 -74.2802
   -74.2397 -74.2367 -74.2282 -74.1948 -74.1936 -74.1813 -74.1310 -74.1203
   -27.9727 -15.0233 -12.2241 -11.7537 -11.4762 -11.4351 -10.2796 -10.2488
    -9.8187  -9.1627  -9.0827  -8.8490  -8.7380  -8.6437  -8.5519  -8.5337
    -8.4516  -8.3578  -8.2864  -8.2557  -8.1505  -8.1078  -8.0877  -8.0038
    -7.9913  -7.9532  -7.8683  -7.8142  -7.7764  -7.7383  -7.6219  -7.6022
    -7.5768  -7.5317  -7.5241  -7.4725  -7.4324  -7.3968  -7.3556  -7.3137
    -7.2450  -7.1922  -7.1852  -7.1652  -7.0562  -7.0157  -6.9710  -6.9406
    -6.9117  -6.8347  -6.8179  -6.7526  -6.7076  -6.6214  -6.6181  -6.5563
    -6.5096  -6.4899  -6.4351  -6.3689  -6.3006  -6.2650  -6.2540  -6.2309
    -6.2086  -6.1732  -6.0833  -6.0210  -5.8785  -5.6435  -5.1814  -4.2111
    -3.7718  -3.1689  -2.3275  -2.1616  -1.6544  -1.5372  -1.0590  -0.3877
     0.5345   0.7359   0.8783   1.0950   1.1552   1.6456   1.8604   1.9322
     2.0022   2.4570   2.5142   2.9285   2.9634   2.9980   3.0603

     the Fermi energy is    -4.5676 ev

!    total energy              =   -4888.89549726 Ry
     estimated scf accuracy    <       0.00000090 Ry
     smearing contrib. (-TS)   =       0.00124969 Ry
     internal energy E=F+TS    =   -4888.89674695 Ry

     The total energy is F=E-TS. E is the sum of the following terms:
     one-electron contribution =  -54597.19184164 Ry
     hartree contribution      =   27265.01690721 Ry
     xc contribution           =    -476.17113487 Ry
     ewald contribution        =   22846.51891662 Ry
     electrostatic embedding   =      -0.00510412 Ry
     electrolyte free energy   =       0.00172904 Ry
     correction to one-el term =      72.93378080 Ry

     WARNING: you are using the parabolic pbc correction;
              the potential shift above must be added to 
              band and Fermi energies.

     convergence has been achieved in  68 iterations

     negative rho (up, down):  1.915E-03 0.000E+00

     Forces acting on atoms (cartesian axes, Ry/au):

     atom    1 type  1   force =    -0.00147959   -0.00109846   -0.00066840
     atom    2 type  1   force =     0.00044549    0.00045882    0.00089266
     atom    3 type  1   force =     0.00012057    0.00045027    0.00185143
     atom    4 type  1   force =    -0.00071957    0.00055681    0.00182124
     atom    5 type  1   force =     0.00045248   -0.00040258    0.00090200
     atom    6 type  1   force =     0.00052449   -0.00001450    0.00114538
     atom    7 type  1   force =     0.00032297   -0.00112144    0.00148692
     atom    8 type  1   force =    -0.00029155    0.00092427    0.00095621
     atom    9 type  1   force =     0.00015093    0.00051757    0.00068802
     atom   10 type  1   force =    -0.00001271   -0.00046272    0.00385901
     atom   11 type  1   force =    -0.00012994   -0.00014348    0.00098383
     atom   12 type  1   force =    -0.00099541   -0.00045221    0.00113638
     atom   13 type  2   force =     0.00080188    0.00036885    0.00469061
     atom   14 type  3   force =     0.00080996    0.00041881   -0.01974527

     Total force =     0.020669     Total SCF correction =     0.008128
     SCF correction compared to forces is large: reduce conv_thr to get better values

     Writing all to output data dir ./output/opt.save/ :
     XML data file, charge density, pseudopotentials, collected wavefunctions
 
     init_run     :      0.47s CPU      0.62s WALL (       1 calls)
     electrons    :    235.21s CPU    853.24s WALL (       1 calls)
     forces       :      0.25s CPU      0.26s WALL (       1 calls)

     Called by init_run:
     wfcinit      :      0.17s CPU      0.18s WALL (       1 calls)
     potinit      :      0.03s CPU      0.06s WALL (       1 calls)
     hinit0       :      0.14s CPU      0.18s WALL (       1 calls)

     Called by electrons:
     c_bands      :     32.32s CPU     32.69s WALL (      68 calls)
     sum_band     :      7.91s CPU      9.97s WALL (      68 calls)
     v_of_rho     :      1.01s CPU      1.19s WALL (      69 calls)
     newd         :      3.83s CPU      5.50s WALL (      69 calls)
     mix_rho      :      0.22s CPU      0.24s WALL (      68 calls)

     Called by c_bands:
     init_us_2    :      0.37s CPU      0.39s WALL (     276 calls)
     cegterg      :     30.94s CPU     31.24s WALL (     136 calls)

     Called by *egterg:
     cdiaghg      :     11.02s CPU     11.05s WALL (     566 calls)
     h_psi        :     12.64s CPU     12.87s WALL (     568 calls)
     s_psi        :      1.07s CPU      1.08s WALL (     568 calls)
     g_psi        :      0.05s CPU      0.05s WALL (     430 calls)

     Called by h_psi:
     h_psi:calbec :      1.57s CPU      1.60s WALL (     568 calls)
     vloc_psi     :      9.83s CPU     10.02s WALL (     568 calls)
     add_vuspsi   :      1.10s CPU      1.11s WALL (     568 calls)

     General routines
     calbec       :      2.28s CPU      2.31s WALL (     712 calls)
     fft          :     43.79s CPU     43.97s WALL (     906 calls)
     ffts         :      0.03s CPU      0.04s WALL (     137 calls)
     fftw         :     10.02s CPU     10.20s WALL (  103742 calls)
     interpolate  :     43.08s CPU     43.10s WALL (      69 calls)
 
     Parallel routines
 
     Environ routines
 
     PWSCF        :   3m56.20s CPU  14m14.54s WALL

 
   This run was terminated on:  16:31:41   9Jun2024            

=------------------------------------------------------------------------------=
   JOB DONE.
=------------------------------------------------------------------------------=
