
     Program PWSCF v.7.2 starts on  5Jun2024 at  9:26: 7 

     This program is part of the open-source Quantum ESPRESSO suite
     for quantum simulation of materials; please cite
         "P. Giannozzi et al., J. Phys.:Condens. Matter 21 395502 (2009);
         "P. Giannozzi et al., J. Phys.:Condens. Matter 29 465901 (2017);
         "P. Giannozzi et al., J. Chem. Phys. 152 154105 (2020);
          URL http://www.quantum-espresso.org", 
     in publications or presentations arising from this work. More details at
     http://www.quantum-espresso.org/quote

     Parallel version (MPI), running on    16 processors

     MPI processes distributed on     1 nodes
     150944 MiB available memory on the printing compute node when the environment starts
 
     Reading input from scf.in

     Current dimensions of program PWSCF are:
     Max number of different atomic species (ntypx) = 10
     Max number of k-points (npk) =  40000
     Max angular momentum in pseudopotentials (lmaxx) =  4
     Message from routine iosys_1drism:
     default density from MOL file(H2O.tip5p.Nishihara.MOL) is used

     gamma-point specific algorithms are used
     Message from routine setup:
     using ibrav=0 with symmetry is DISCOURAGED, use correct ibrav instead
 
     R & G space division:  proc/nbgrp/npool/nimage =      16
     Subspace diagonalization in iterative solution of the eigenvalue problem:
     a serial algorithm will be used


     Molecule # 1 for H2O read from file:
     ../../pseudo/H2O.tip5p.Nishihara.MOL
     Density:
         0.26741625E+03 cell^-1
         0.49533751E-02 bohr^-3
         0.55506881E+02 mol/L
         0.99997200E+00 g/cm^3
     Permittivity:
        78.500000
     Number of atoms:   5
     Atoms:
       #  atom      X (angs)      Y (angs)      Z (angs)      Q (e)         E (kcal/mol)  S (angs)
       1  O/h2o     0.00000000   -0.06556000    0.00000000    0.00000000    0.16000000    3.12000000
       2  H/h2o     0.75695000    0.52032000    0.00000000    0.24100000    0.04600000    1.00000000
       3  H/h2o    -0.75695000    0.52032000    0.00000000    0.24100000    0.04600000    1.00000000
       4  L/h2o     0.00000000   -0.46971000    0.57154000   -0.24100000    0.04600000    1.80000000
       5  L/h2o     0.00000000   -0.46971000   -0.57154000   -0.24100000    0.04600000    1.80000000


     Molecule # 2 for K+ read from file:
     ../../pseudo/K+.Hagiwara.MOL
     Density:
         0.48177136E+01 cell^-1
         0.89238937E-04 bohr^-3
         0.10000000E+01 mol/L
         0.39098300E-01 g/cm^3
     Number of atoms:   1
     Atoms:
       #  atom      X (angs)      Y (angs)      Z (angs)      Q (e)         E (kcal/mol)  S (angs)
       1  K         0.00000000    0.00000000    0.00000000    1.00000000    0.00032800    4.93462800


     Molecule # 3 for OH- read from file:
     ../../pseudo/OH-.oplsaa.MOL
     Density:
         0.48177136E+01 cell^-1
         0.89238937E-04 bohr^-3
         0.10000000E+01 mol/L
         0.17007340E-01 g/cm^3
     Number of atoms:   2
     Atoms:
       #  atom      X (angs)      Y (angs)      Z (angs)      Q (e)         E (kcal/mol)  S (angs)
       1  O/oh      0.00000000    0.00000000    0.00000000   -1.30000000    0.25000000    3.20000000
       2  H/oh      0.95300000    0.00000000    0.00000000    0.30000000    0.04600000    1.00000000


     1D-RISM info
     ------------
     closure equation        =           KH
     temperature             =     300.0000  kelvin
     coulomb smearing radius =       2.0000  bohr
     number of solvent sites =            8
     number of grids         =         5973
     maximum of R-space      =     999.8326  bohr
     maximum of G-space      =      18.7632  bohr^-1
     number of iterations    =        50000
     convergence threshold   =      1.0E-08
     Gaussian width of bonds =       0.3162  bohr
     size of MDIIS           =           20
     step of MDIIS           =       0.1000
     number of processes     =           16


     1D-RISM Calculation

     iter. #     1  RMS(g-h-1)= 7.798E-04  nbox=  0  T= 2400.00K
     iter. #   101  RMS(g-h-1)= 1.113E-05  nbox= 13  T= 1600.00K
     iter. #   201  RMS(g-h-1)= 1.412E-06  nbox= 20  T= 1066.67K
     iter. #   301  RMS(g-h-1)= 1.189E-06  nbox= 20  T=  711.11K
     iter. #   401  RMS(g-h-1)= 1.487E-06  nbox= 20  T=  474.07K
     iter. #   501  RMS(g-h-1)= 3.048E-06  nbox=  5  T=  316.05K
     iter. #   601  RMS(g-h-1)= 8.685E-07  nbox= 20  T=  300.00K
     iter. #   701  RMS(g-h-1)= 2.657E-07  nbox= 20  T=  300.00K
     iter. #   801  RMS(g-h-1)= 1.532E-07  nbox= 20  T=  300.00K
     iter. #   901  RMS(g-h-1)= 1.172E-07  nbox= 20  T=  300.00K
     iter. #  1001  RMS(g-h-1)= 9.946E-08  nbox= 20  T=  300.00K
     iter. #  1101  RMS(g-h-1)= 8.927E-08  nbox= 20  T=  300.00K
     iter. #  1201  RMS(g-h-1)= 7.606E-08  nbox= 20  T=  300.00K
     iter. #  1301  RMS(g-h-1)= 6.972E-08  nbox= 20  T=  300.00K
     iter. #  1401  RMS(g-h-1)= 6.360E-08  nbox= 20  T=  300.00K
     iter. #  1501  RMS(g-h-1)= 5.776E-08  nbox= 20  T=  300.00K
     iter. #  1601  RMS(g-h-1)= 5.215E-08  nbox= 20  T=  300.00K
     iter. #  1701  RMS(g-h-1)= 4.835E-08  nbox= 20  T=  300.00K
     iter. #  1801  RMS(g-h-1)= 4.521E-08  nbox= 20  T=  300.00K
     iter. #  1901  RMS(g-h-1)= 4.172E-08  nbox= 20  T=  300.00K
     iter. #  2001  RMS(g-h-1)= 4.022E-08  nbox= 20  T=  300.00K
     iter. #  2101  RMS(g-h-1)= 3.757E-08  nbox= 20  T=  300.00K
     iter. #  2201  RMS(g-h-1)= 3.470E-08  nbox= 20  T=  300.00K
     iter. #  2301  RMS(g-h-1)= 3.412E-08  nbox= 20  T=  300.00K
     iter. #  2401  RMS(g-h-1)= 3.470E-08  nbox= 20  T=  300.00K
     iter. #  2501  RMS(g-h-1)= 3.375E-08  nbox= 20  T=  300.00K
     iter. #  2601  RMS(g-h-1)= 3.341E-08  nbox= 20  T=  300.00K
     iter. #  2701  RMS(g-h-1)= 3.198E-08  nbox= 20  T=  300.00K
     iter. #  2801  RMS(g-h-1)= 3.139E-08  nbox= 20  T=  300.00K
     iter. #  2901  RMS(g-h-1)= 3.066E-08  nbox= 20  T=  300.00K
     iter. #  3001  RMS(g-h-1)= 3.023E-08  nbox= 20  T=  300.00K
     iter. #  3101  RMS(g-h-1)= 3.006E-08  nbox= 20  T=  300.00K
     iter. #  3201  RMS(g-h-1)= 3.041E-08  nbox= 20  T=  300.00K
     iter. #  3301  RMS(g-h-1)= 3.092E-08  nbox= 20  T=  300.00K
     iter. #  3401  RMS(g-h-1)= 2.981E-08  nbox= 20  T=  300.00K
     iter. #  3501  RMS(g-h-1)= 3.078E-08  nbox= 20  T=  300.00K
     iter. #  3601  RMS(g-h-1)= 3.030E-08  nbox= 20  T=  300.00K
     iter. #  3701  RMS(g-h-1)= 3.054E-08  nbox= 20  T=  300.00K
     iter. #  3801  RMS(g-h-1)= 3.082E-08  nbox= 20  T=  300.00K
     iter. #  3901  RMS(g-h-1)= 2.873E-08  nbox= 20  T=  300.00K
     iter. #  4001  RMS(g-h-1)= 2.858E-08  nbox= 20  T=  300.00K
     iter. #  4101  RMS(g-h-1)= 3.021E-08  nbox= 20  T=  300.00K
     iter. #  4201  RMS(g-h-1)= 2.845E-08  nbox= 20  T=  300.00K
     iter. #  4301  RMS(g-h-1)= 2.792E-08  nbox= 20  T=  300.00K
     iter. #  4401  RMS(g-h-1)= 2.737E-08  nbox= 20  T=  300.00K
     iter. #  4501  RMS(g-h-1)= 2.700E-08  nbox= 20  T=  300.00K
     iter. #  4601  RMS(g-h-1)= 2.724E-08  nbox= 20  T=  300.00K
     iter. #  4701  RMS(g-h-1)= 2.633E-08  nbox= 20  T=  300.00K
     iter. #  4801  RMS(g-h-1)= 2.588E-08  nbox= 20  T=  300.00K
     iter. #  4901  RMS(g-h-1)= 2.574E-08  nbox= 20  T=  300.00K
     iter. #  5001  RMS(g-h-1)= 2.527E-08  nbox= 20  T=  300.00K
     iter. #  5101  RMS(g-h-1)= 2.587E-08  nbox= 20  T=  300.00K
     iter. #  5201  RMS(g-h-1)= 2.368E-08  nbox= 20  T=  300.00K
     iter. #  5301  RMS(g-h-1)= 2.283E-08  nbox= 20  T=  300.00K
     iter. #  5401  RMS(g-h-1)= 2.318E-08  nbox= 20  T=  300.00K
     iter. #  5501  RMS(g-h-1)= 2.168E-08  nbox= 20  T=  300.00K
     iter. #  5601  RMS(g-h-1)= 2.074E-08  nbox= 20  T=  300.00K
     iter. #  5701  RMS(g-h-1)= 2.138E-08  nbox= 20  T=  300.00K
     iter. #  5801  RMS(g-h-1)= 2.094E-08  nbox= 20  T=  300.00K
     iter. #  5901  RMS(g-h-1)= 1.959E-08  nbox= 20  T=  300.00K
     iter. #  6001  RMS(g-h-1)= 1.930E-08  nbox= 20  T=  300.00K
     iter. #  6101  RMS(g-h-1)= 1.985E-08  nbox= 20  T=  300.00K
     iter. #  6201  RMS(g-h-1)= 1.960E-08  nbox= 20  T=  300.00K
     iter. #  6301  RMS(g-h-1)= 1.884E-08  nbox= 20  T=  300.00K
     iter. #  6401  RMS(g-h-1)= 1.862E-08  nbox= 20  T=  300.00K
     iter. #  6501  RMS(g-h-1)= 1.813E-08  nbox= 20  T=  300.00K
     iter. #  6601  RMS(g-h-1)= 1.763E-08  nbox= 20  T=  300.00K
     iter. #  6701  RMS(g-h-1)= 1.702E-08  nbox= 20  T=  300.00K
     iter. #  6801  RMS(g-h-1)= 1.635E-08  nbox= 20  T=  300.00K
     iter. #  6901  RMS(g-h-1)= 1.589E-08  nbox= 20  T=  300.00K
     iter. #  7001  RMS(g-h-1)= 1.539E-08  nbox= 20  T=  300.00K
     iter. #  7101  RMS(g-h-1)= 1.493E-08  nbox= 20  T=  300.00K
     iter. #  7201  RMS(g-h-1)= 1.463E-08  nbox= 20  T=  300.00K
     iter. #  7301  RMS(g-h-1)= 1.406E-08  nbox= 20  T=  300.00K
     iter. #  7401  RMS(g-h-1)= 1.360E-08  nbox= 20  T=  300.00K
     iter. #  7501  RMS(g-h-1)= 1.306E-08  nbox= 20  T=  300.00K
     iter. #  7601  RMS(g-h-1)= 1.262E-08  nbox= 20  T=  300.00K
     iter. #  7701  RMS(g-h-1)= 1.213E-08  nbox= 20  T=  300.00K
     iter. #  7801  RMS(g-h-1)= 1.182E-08  nbox= 20  T=  300.00K
     iter. #  7901  RMS(g-h-1)= 1.159E-08  nbox= 20  T=  300.00K
     iter. #  8001  RMS(g-h-1)= 1.135E-08  nbox= 20  T=  300.00K
     iter. #  8101  RMS(g-h-1)= 1.108E-08  nbox= 20  T=  300.00K
     iter. #  8201  RMS(g-h-1)= 1.065E-08  nbox= 20  T=  300.00K
     iter. #  8301  RMS(g-h-1)= 1.027E-08  nbox= 20  T=  300.00K
     iter. #  8363  RMS(g-h-1)= 9.997E-09  nbox= 20  T=  300.00K

     End of 1D-RISM calculation


     convergence has been achieved in  8363 iterations


     Chemical potential of solvation

     H2O        H2O        Closure      0.144027E+01 kcal/mol
                           GaussFluct  -0.702220E+01 kcal/mol

                K+         Closure     -0.280539E+00 kcal/mol
                           GaussFluct  -0.350079E+00 kcal/mol

                OH-        Closure     -0.749899E+00 kcal/mol
                           GaussFluct  -0.841436E+00 kcal/mol

                Total      Closure      0.409832E+00 kcal/mol
                           GaussFluct  -0.821372E+01 kcal/mol

     K+         H2O        Closure     -0.155719E+02 kcal/mol
                           GaussFluct  -0.194318E+02 kcal/mol

                K+         Closure      0.351545E+06 kcal/mol
                           GaussFluct   0.351545E+06 kcal/mol

                OH-        Closure     -0.351595E+06 kcal/mol
                           GaussFluct  -0.351595E+06 kcal/mol

                Total      Closure     -0.662660E+02 kcal/mol
                           GaussFluct  -0.701839E+02 kcal/mol

     OH-        H2O        Closure     -0.416245E+02 kcal/mol
                           GaussFluct  -0.467055E+02 kcal/mol

                K+         Closure     -0.351595E+06 kcal/mol
                           GaussFluct  -0.351595E+06 kcal/mol

                OH-        Closure      0.351544E+06 kcal/mol
                           GaussFluct   0.351544E+06 kcal/mol

                Total      Closure     -0.925526E+02 kcal/mol
                           GaussFluct  -0.977561E+02 kcal/mol

 
     Parallelization info
     --------------------
     sticks:   dense  smooth     PW     G-vecs:    dense   smooth      PW
     Min        2272    1135    281               326212   115343   14396
     Max        2274    1138    286               326222   115354   14402
     Sum       36381   18197   4537              5219483  1845573  230389
 
     Using Slab Decomposition
 


     bravais-lattice index     =            0
     lattice parameter (alat)  =      37.7945  a.u.
     unit-cell volume          =   53986.6760 (a.u.)^3
     number of atoms/cell      =            3
     number of atomic types    =            2
     number of electrons       =         8.00
     number of Kohn-Sham states=           20
     kinetic-energy cutoff     =      40.0000  Ry
     charge density cutoff     =     320.0000  Ry
     scf convergence threshold =      1.0E-06
     mixing beta               =       0.1000
     number of iterations used =            8  plain     mixing
     Exchange-correlation=  SLA  PW   PBX  PBC
                           (   1   4   3   4   0   0   0)

     Effective Screening Medium Method
     =================================
     Boundary Conditions: Vacuum-Slab-Vacuum
     total charge in unit cell        =   0.0000
     grid points for fit at edges     =        4 
 

     celldm(1)=  37.794522  celldm(2)=   0.000000  celldm(3)=   0.000000
     celldm(4)=   0.000000  celldm(5)=   0.000000  celldm(6)=   0.000000

     crystal axes: (cart. coord. in units of alat)
               a(1) = (   1.000000   0.000000   0.000000 )  
               a(2) = (   0.000000   1.000000   0.000000 )  
               a(3) = (   0.000000   0.000000   1.000000 )  

     reciprocal axes: (cart. coord. in units 2 pi/alat)
               b(1) = (  1.000000  0.000000  0.000000 )  
               b(2) = (  0.000000  1.000000  0.000000 )  
               b(3) = (  0.000000  0.000000  1.000000 )  


     PseudoPot. # 1 for O  read from file:
     ../../pseudo/o_pbe_v1.2.uspp.F.UPF
     MD5 check sum: 734c27235a0248c51dbae37a1fbe46ec
     Pseudo is Ultrasoft + core correction, Zval =  6.0
     Generated by new atomic code, or converted to UPF format
     Using radial grid of  737 points,  5 beta functions with: 
                l(1) =   0
                l(2) =   0
                l(3) =   1
                l(4) =   1
                l(5) =   2
     Q(r) pseudized with  8 coefficients,  rinner =    0.900   0.900   0.900
                                                       0.900   0.900

     PseudoPot. # 2 for H  read from file:
     ../../pseudo/h_pbe_v1.4.uspp.F.UPF
     MD5 check sum: 761ae9a214b05c3daf00ab9f6b793d6f
     Pseudo is Ultrasoft, Zval =  1.0
     Generated by new atomic code, or converted to UPF format
     Using radial grid of  615 points,  2 beta functions with: 
                l(1) =   0
                l(2) =   0
     Q(r) pseudized with  8 coefficients,  rinner =    0.700

     atomic species   valence    mass     pseudopotential
        O              6.00    16.00000     O ( 1.00)
        H              1.00     1.00800     H ( 1.00)

      2 Sym. Ops. (no inversion) found



   Cartesian axes

     site n.     atom                  positions (alat units)
         1           O   tau(   1) = (   0.0055682   0.0055682  -0.0000001  )
         2           H   tau(   2) = (   0.0272162   0.0272162   0.0386313  )
         3           H   tau(   3) = (   0.0272156   0.0272156  -0.0386304  )

     number of k points=     1  Gaussian smearing, width (Ry)=  0.0100
                       cart. coord. in units 2pi/alat
        k(    1) = (   0.0000000   0.0000000   0.0000000), wk =   2.0000000

     Dense  grid:  2609742 G-vectors     FFT dimensions: ( 216, 216, 216)

     Smooth grid:   922787 G-vectors     FFT dimensions: ( 160, 160, 160)

     Estimated max dynamical RAM per process >     391.76 MB

     Estimated total dynamical RAM >       6.12 GB

     Solute:
       # atom     E (kcal/mol)  S (angs)
       1  O       0.15540000    3.16600000    given
       2  H       0.04600000    1.00000000    given
       3  H       0.04600000    1.00000000    given


     Laue-RISM info
     --------------
     closure equation        =           KH
     temperature             =     300.0000  kelvin
     coulomb smearing radius =       2.0000  bohr
     number of solvent sites =            6
     solvent sites           =    O/h2o   H/h2o   L/h2o       K
     solvent sites           =     O/oh    H/oh
     number of iterations    =        10000
     convergence threshold   =      1.0E-06
     convergence level       =       0.5000
     size of MDIIS           =           10
     step of MDIIS           =       0.4000
     solvent cutoff          =     160.0000  Ry
     Custom grid:   922787 G-vectors     FFT dimensions: ( 160, 160, 160)

     Boundary Conditions        : Solvent-Slab-Solvent
     unit-cell (in bohr)        : [ -18.897261  18.897261]
     expand-cell (in bohr)      : [ -79.840929  79.604713]
     solvent of left (in bohr)  : [ -79.840929   0.000000]
     solvent of right (in bohr) : [   0.000000  79.604713]
     reference of potential     : average of both sides
     #grids to fit at edges of unit-cell =    4
     Laue grid:     9099 Gxy-vectors     FFT dimensions: ( 160, 160, 675)


     Initial potential from superposition of free atoms

     starting charge       8.0000, renormalised to       8.0000

     negative rho (up, down):  7.324E-04 0.000E+00

     Laue-RISM Calculation

     convergence threshold    = 1.000E-04
     iter. #     1  RMS(g-h-1)= 1.342E-01  nbox=  0
     iter. #    11  RMS(g-h-1)= 6.737E-03  nbox= 10
     iter. #    21  RMS(g-h-1)= 4.400E-03  nbox= 10
     iter. #    31  RMS(g-h-1)= 1.891E-03  nbox= 10
     iter. #    41  RMS(g-h-1)= 1.531E-03  nbox= 10
     iter. #    51  RMS(g-h-1)= 1.026E-03  nbox= 10
     iter. #    61  RMS(g-h-1)= 7.294E-04  nbox= 10
     iter. #    71  RMS(g-h-1)= 6.066E-04  nbox= 10
     iter. #    81  RMS(g-h-1)= 4.573E-04  nbox= 10
     iter. #    91  RMS(g-h-1)= 4.072E-04  nbox= 10
     iter. #   101  RMS(g-h-1)= 2.750E-04  nbox= 10
     iter. #   111  RMS(g-h-1)= 2.162E-04  nbox= 10
     iter. #   121  RMS(g-h-1)= 1.775E-04  nbox= 10
     iter. #   131  RMS(g-h-1)= 1.144E-04  nbox= 10
     iter. #   134  RMS(g-h-1)= 9.620E-05  nbox= 10

     End of Laue-RISM calculation


     convergence has been achieved in   134 iterations


     solvent charge   -0.00786, renormalised to   -0.00000

     Total number of solvent (in expand-cell)
     H2O         1125.941664
     K+            20.282220
     OH-           20.305419

     Total charge of solvent (in expand-cell)
     H2O           -0.012688 e
     K+            20.282220 e
     OH-          -20.277392 e
     Total         -0.007860 e

     Chemical potential of solvation (in expand-cell)
     H2O        GaussFluct   0.179634E+01 kcal/mol
     K+         GaussFluct   0.209571E+00 kcal/mol
     OH-        GaussFluct  -0.336522E-01 kcal/mol
     Total      GaussFluct   0.197226E+01 kcal/mol

     Starting wfcs are    6 randomized atomic wfcs +   14 random wfcs

     total cpu time spent up to now is      327.4 secs

     Self-consistent Calculation

     iteration #  1     ecut=    40.00 Ry     beta= 0.10
     Davidson diagonalization with overlap
     ethr =  1.00E-02,  avg # of iterations =  7.0

     negative rho (up, down):  1.115E-03 0.000E+00

     Laue-RISM Calculation

     convergence threshold    = 1.000E-04
     iter. #     1  RMS(g-h-1)= 2.738E-03  nbox=  0
     iter. #    11  RMS(g-h-1)= 3.646E-04  nbox= 10
     iter. #    21  RMS(g-h-1)= 1.430E-04  nbox= 10
     iter. #    31  RMS(g-h-1)= 1.127E-04  nbox= 10
     iter. #    37  RMS(g-h-1)= 9.796E-05  nbox= 10

     End of Laue-RISM calculation


     convergence has been achieved in    37 iterations


     solvent charge   -0.04782, renormalised to   -0.00000

     Total number of solvent (in expand-cell)
     H2O         1125.987641
     K+            20.266242
     OH-           20.309000

     Total charge of solvent (in expand-cell)
     H2O           -0.012372 e
     K+            20.266242 e
     OH-          -20.301694 e
     Total         -0.047825 e

     Chemical potential of solvation (in expand-cell)
     H2O        GaussFluct   0.143051E+01 kcal/mol
     K+         GaussFluct   0.164333E+00 kcal/mol
     OH-        GaussFluct   0.394372E-01 kcal/mol
     Total      GaussFluct   0.163428E+01 kcal/mol


     total cpu time spent up to now is      403.0 secs

     total energy              =     -34.74545042 Ry
     estimated scf accuracy    <       0.45717481 Ry

     iteration #  2     ecut=    40.00 Ry     beta= 0.10
     Davidson diagonalization with overlap
     ethr =  5.71E-03,  avg # of iterations =  1.0

     negative rho (up, down):  4.000E-03 0.000E+00

     Laue-RISM Calculation

     convergence threshold    = 1.000E-04
     iter. #     1  RMS(g-h-1)= 8.715E-03  nbox=  0
     iter. #    11  RMS(g-h-1)= 1.170E-03  nbox= 10
     iter. #    21  RMS(g-h-1)= 7.183E-04  nbox= 10
     iter. #    31  RMS(g-h-1)= 3.596E-04  nbox= 10
     iter. #    41  RMS(g-h-1)= 2.657E-04  nbox= 10
     iter. #    51  RMS(g-h-1)= 1.565E-04  nbox= 10
     iter. #    61  RMS(g-h-1)= 1.274E-04  nbox= 10
     iter. #    71  RMS(g-h-1)= 1.137E-04  nbox=  2
     iter. #    76  RMS(g-h-1)= 9.988E-05  nbox=  7

     End of Laue-RISM calculation


     convergence has been achieved in    76 iterations


     solvent charge   -0.06797, renormalised to    0.00000

     Total number of solvent (in expand-cell)
     H2O         1126.203164
     K+            20.313044
     OH-           20.322717

     Total charge of solvent (in expand-cell)
     H2O           -0.000453 e
     K+            20.313044 e
     OH-          -20.380565 e
     Total         -0.067975 e

     Chemical potential of solvation (in expand-cell)
     H2O        GaussFluct  -0.809875E+00 kcal/mol
     K+         GaussFluct  -0.289651E+00 kcal/mol
     OH-        GaussFluct  -0.284154E+00 kcal/mol
     Total      GaussFluct  -0.138368E+01 kcal/mol


     total cpu time spent up to now is      531.8 secs

     total energy              =     -34.63454387 Ry
     estimated scf accuracy    <       0.26895224 Ry

     iteration #  3     ecut=    40.00 Ry     beta= 0.10
     Davidson diagonalization with overlap
     ethr =  3.36E-03,  avg # of iterations =  2.0

     negative rho (up, down):  4.562E-03 0.000E+00

     Laue-RISM Calculation

     convergence threshold    = 3.298E-05
     iter. #     1  RMS(g-h-1)= 1.282E-03  nbox=  0
     iter. #    11  RMS(g-h-1)= 1.165E-04  nbox= 10
     iter. #    21  RMS(g-h-1)= 9.337E-05  nbox= 10
     iter. #    31  RMS(g-h-1)= 7.535E-05  nbox= 10
     iter. #    41  RMS(g-h-1)= 6.608E-05  nbox= 10
     iter. #    51  RMS(g-h-1)= 5.077E-05  nbox=  9
     iter. #    61  RMS(g-h-1)= 3.241E-05  nbox= 10

     End of Laue-RISM calculation


     convergence has been achieved in    61 iterations


     solvent charge   -0.03557, renormalised to   -0.00000

     Total number of solvent (in expand-cell)
     H2O         1126.300157
     K+            20.313028
     OH-           20.323252

     Total charge of solvent (in expand-cell)
     H2O           -0.011143 e
     K+            20.313028 e
     OH-          -20.337457 e
     Total         -0.035572 e

     Chemical potential of solvation (in expand-cell)
     H2O        GaussFluct  -0.135850E+01 kcal/mol
     K+         GaussFluct  -0.384106E+00 kcal/mol
     OH-        GaussFluct  -0.421533E-01 kcal/mol
     Total      GaussFluct  -0.178476E+01 kcal/mol


     total cpu time spent up to now is      639.4 secs

     total energy              =     -34.68442776 Ry
     estimated scf accuracy    <       0.02206362 Ry

     iteration #  4     ecut=    40.00 Ry     beta= 0.10
     Davidson diagonalization with overlap
     ethr =  2.76E-04,  avg # of iterations = 10.0

     negative rho (up, down):  9.782E-03 0.000E+00

     Laue-RISM Calculation

     convergence threshold    = 2.616E-05
     iter. #     1  RMS(g-h-1)= 4.524E-03  nbox=  0
     iter. #    11  RMS(g-h-1)= 6.409E-04  nbox= 10
     iter. #    21  RMS(g-h-1)= 2.805E-04  nbox= 10
     iter. #    31  RMS(g-h-1)= 1.806E-04  nbox= 10
     iter. #    41  RMS(g-h-1)= 1.536E-04  nbox= 10
     iter. #    51  RMS(g-h-1)= 1.039E-04  nbox=  9
     iter. #    61  RMS(g-h-1)= 7.949E-05  nbox= 10
     iter. #    71  RMS(g-h-1)= 6.121E-05  nbox= 10
     iter. #    81  RMS(g-h-1)= 4.917E-05  nbox= 10
     iter. #    91  RMS(g-h-1)= 3.551E-05  nbox= 10
     iter. #   101  RMS(g-h-1)= 2.767E-05  nbox= 10
     iter. #   105  RMS(g-h-1)= 2.332E-05  nbox= 10

     End of Laue-RISM calculation


     convergence has been achieved in   105 iterations


     solvent charge   -0.01689, renormalised to   -0.00000

     Total number of solvent (in expand-cell)
     H2O         1126.608219
     K+            20.378546
     OH-           20.373023

     Total charge of solvent (in expand-cell)
     H2O           -0.006790 e
     K+            20.378546 e
     OH-          -20.388649 e
     Total         -0.016892 e

     Chemical potential of solvation (in expand-cell)
     H2O        GaussFluct  -0.512709E+01 kcal/mol
     K+         GaussFluct  -0.104706E+01 kcal/mol
     OH-        GaussFluct  -0.323482E+00 kcal/mol
     Total      GaussFluct  -0.649763E+01 kcal/mol


     total cpu time spent up to now is      809.4 secs

     total energy              =     -34.68604856 Ry
     estimated scf accuracy    <       0.01703562 Ry

     iteration #  5     ecut=    40.00 Ry     beta= 0.10
     Davidson diagonalization with overlap
     ethr =  2.13E-04,  avg # of iterations =  4.0

     negative rho (up, down):  9.270E-03 0.000E+00

     Laue-RISM Calculation

     convergence threshold    = 3.252E-06
     iter. #     1  RMS(g-h-1)= 6.307E-04  nbox=  0
     iter. #    11  RMS(g-h-1)= 7.766E-05  nbox= 10
     iter. #    21  RMS(g-h-1)= 3.557E-05  nbox= 10
     iter. #    31  RMS(g-h-1)= 2.606E-05  nbox= 10
     iter. #    41  RMS(g-h-1)= 2.137E-05  nbox= 10
     iter. #    51  RMS(g-h-1)= 1.769E-05  nbox= 10
     iter. #    61  RMS(g-h-1)= 1.468E-05  nbox=  7
     iter. #    71  RMS(g-h-1)= 7.817E-06  nbox= 10
     iter. #    81  RMS(g-h-1)= 5.898E-06  nbox= 10
     iter. #    91  RMS(g-h-1)= 5.020E-06  nbox= 10
     iter. #   101  RMS(g-h-1)= 4.373E-06  nbox= 10
     iter. #   111  RMS(g-h-1)= 3.834E-06  nbox=  4
     iter. #   121  RMS(g-h-1)= 3.437E-06  nbox= 10
     iter. #   130  RMS(g-h-1)= 3.230E-06  nbox=  7

     End of Laue-RISM calculation


     convergence has been achieved in   130 iterations


     solvent charge   -0.00579, renormalised to   -0.00000

     Total number of solvent (in expand-cell)
     H2O         1126.644395
     K+            20.382216
     OH-           20.382290

     Total charge of solvent (in expand-cell)
     H2O           -0.005452 e
     K+            20.382216 e
     OH-          -20.382559 e
     Total         -0.005795 e

     Chemical potential of solvation (in expand-cell)
     H2O        GaussFluct  -0.557136E+01 kcal/mol
     K+         GaussFluct  -0.110549E+01 kcal/mol
     OH-        GaussFluct  -0.348604E+00 kcal/mol
     Total      GaussFluct  -0.702546E+01 kcal/mol


     total cpu time spent up to now is     1017.5 secs

     total energy              =     -34.68648139 Ry
     estimated scf accuracy    <       0.00165666 Ry

     iteration #  6     ecut=    40.00 Ry     beta= 0.10
     Davidson diagonalization with overlap
     ethr =  2.07E-05,  avg # of iterations = 15.0

     negative rho (up, down):  8.681E-03 0.000E+00

     Laue-RISM Calculation

     convergence threshold    = 1.000E-06
     iter. #     1  RMS(g-h-1)= 4.520E-04  nbox=  0
     iter. #    11  RMS(g-h-1)= 5.728E-05  nbox= 10
     iter. #    21  RMS(g-h-1)= 2.535E-05  nbox= 10
     iter. #    31  RMS(g-h-1)= 1.817E-05  nbox= 10
     iter. #    41  RMS(g-h-1)= 1.274E-05  nbox= 10
     iter. #    51  RMS(g-h-1)= 9.241E-06  nbox= 10
     iter. #    61  RMS(g-h-1)= 7.922E-06  nbox= 10
     iter. #    71  RMS(g-h-1)= 5.663E-06  nbox=  8
     iter. #    81  RMS(g-h-1)= 4.223E-06  nbox= 10
     iter. #    91  RMS(g-h-1)= 3.223E-06  nbox= 10
     iter. #   101  RMS(g-h-1)= 2.786E-06  nbox= 10
     iter. #   111  RMS(g-h-1)= 2.568E-06  nbox=  5
     iter. #   121  RMS(g-h-1)= 2.439E-06  nbox= 10
     iter. #   131  RMS(g-h-1)= 2.319E-06  nbox=  9
     iter. #   141  RMS(g-h-1)= 2.243E-06  nbox=  3
     iter. #   151  RMS(g-h-1)= 2.096E-06  nbox= 10
     iter. #   161  RMS(g-h-1)= 1.977E-06  nbox=  7
     iter. #   171  RMS(g-h-1)= 1.848E-06  nbox= 10
     iter. #   181  RMS(g-h-1)= 1.789E-06  nbox= 10
     iter. #   191  RMS(g-h-1)= 1.758E-06  nbox=  5
     iter. #   201  RMS(g-h-1)= 1.716E-06  nbox= 10
     iter. #   211  RMS(g-h-1)= 1.663E-06  nbox=  9
     iter. #   221  RMS(g-h-1)= 1.618E-06  nbox=  3
     iter. #   231  RMS(g-h-1)= 1.532E-06  nbox= 10
     iter. #   241  RMS(g-h-1)= 1.456E-06  nbox=  7
     iter. #   251  RMS(g-h-1)= 1.384E-06  nbox= 10
     iter. #   261  RMS(g-h-1)= 1.321E-06  nbox= 10
     iter. #   271  RMS(g-h-1)= 1.299E-06  nbox=  5
     iter. #   281  RMS(g-h-1)= 1.251E-06  nbox= 10
     iter. #   291  RMS(g-h-1)= 1.226E-06  nbox=  9
     iter. #   301  RMS(g-h-1)= 1.207E-06  nbox=  3
     iter. #   311  RMS(g-h-1)= 1.194E-06  nbox= 10
     iter. #   321  RMS(g-h-1)= 1.172E-06  nbox=  7
     iter. #   331  RMS(g-h-1)= 1.149E-06  nbox= 10
     iter. #   341  RMS(g-h-1)= 1.127E-06  nbox= 10
     iter. #   351  RMS(g-h-1)= 1.117E-06  nbox=  5
     iter. #   361  RMS(g-h-1)= 1.108E-06  nbox= 10
     iter. #   371  RMS(g-h-1)= 1.096E-06  nbox=  9
     iter. #   381  RMS(g-h-1)= 1.073E-06  nbox=  3
     iter. #   391  RMS(g-h-1)= 1.019E-06  nbox= 10
     iter. #   394  RMS(g-h-1)= 9.985E-07  nbox= 10

     End of Laue-RISM calculation


     convergence has been achieved in   394 iterations


     solvent charge   -0.00565, renormalised to   -0.00000

     Total number of solvent (in expand-cell)
     H2O         1126.638536
     K+            20.379767
     OH-           20.379747

     Total charge of solvent (in expand-cell)
     H2O           -0.005642 e
     K+            20.379767 e
     OH-          -20.379775 e
     Total         -0.005650 e

     Chemical potential of solvation (in expand-cell)
     H2O        GaussFluct  -0.545076E+01 kcal/mol
     K+         GaussFluct  -0.108109E+01 kcal/mol
     OH-        GaussFluct  -0.334850E+00 kcal/mol
     Total      GaussFluct  -0.686670E+01 kcal/mol


     total cpu time spent up to now is     1489.0 secs

     total energy              =     -34.68715042 Ry
     estimated scf accuracy    <       0.00042344 Ry

     iteration #  7     ecut=    40.00 Ry     beta= 0.10
     Davidson diagonalization with overlap
     ethr =  5.29E-06,  avg # of iterations =  5.0

     negative rho (up, down):  7.865E-03 0.000E+00

     Laue-RISM Calculation

     convergence threshold    = 3.648E-06
     iter. #     1  RMS(g-h-1)= 1.188E-03  nbox=  0
     iter. #    11  RMS(g-h-1)= 1.669E-04  nbox= 10
     iter. #    21  RMS(g-h-1)= 6.051E-05  nbox= 10
     iter. #    31  RMS(g-h-1)= 3.933E-05  nbox= 10
     iter. #    41  RMS(g-h-1)= 2.643E-05  nbox= 10
     iter. #    51  RMS(g-h-1)= 1.846E-05  nbox= 10
     iter. #    61  RMS(g-h-1)= 1.708E-05  nbox= 10
     iter. #    71  RMS(g-h-1)= 1.199E-05  nbox=  8
     iter. #    81  RMS(g-h-1)= 8.021E-06  nbox= 10
     iter. #    91  RMS(g-h-1)= 5.671E-06  nbox= 10
     iter. #   101  RMS(g-h-1)= 4.467E-06  nbox= 10
     iter. #   107  RMS(g-h-1)= 3.632E-06  nbox= 10

     End of Laue-RISM calculation


     convergence has been achieved in   107 iterations


     solvent charge   -0.00423, renormalised to    0.00000

     Total number of solvent (in expand-cell)
     H2O         1126.703580
     K+            20.396443
     OH-           20.396043

     Total charge of solvent (in expand-cell)
     H2O           -0.005622 e
     K+            20.396443 e
     OH-          -20.395054 e
     Total         -0.004233 e

     Chemical potential of solvation (in expand-cell)
     H2O        GaussFluct  -0.648114E+01 kcal/mol
     K+         GaussFluct  -0.126798E+01 kcal/mol
     OH-        GaussFluct  -0.452045E+00 kcal/mol
     Total      GaussFluct  -0.820116E+01 kcal/mol


     total cpu time spent up to now is     1618.0 secs

     total energy              =     -34.68673626 Ry
     estimated scf accuracy    <       0.00188339 Ry

     iteration #  8     ecut=    40.00 Ry     beta= 0.10
     Davidson diagonalization with overlap
     ethr =  5.29E-06,  avg # of iterations =  9.0

     negative rho (up, down):  7.362E-03 0.000E+00

     Laue-RISM Calculation

     convergence threshold    = 1.000E-06
     iter. #     1  RMS(g-h-1)= 4.938E-05  nbox=  0
     iter. #    11  RMS(g-h-1)= 6.235E-06  nbox= 10
     iter. #    21  RMS(g-h-1)= 3.475E-06  nbox= 10
     iter. #    31  RMS(g-h-1)= 2.830E-06  nbox= 10
     iter. #    41  RMS(g-h-1)= 2.289E-06  nbox= 10
     iter. #    51  RMS(g-h-1)= 2.150E-06  nbox= 10
     iter. #    61  RMS(g-h-1)= 1.789E-06  nbox= 10
     iter. #    71  RMS(g-h-1)= 1.663E-06  nbox=  4
     iter. #    81  RMS(g-h-1)= 1.524E-06  nbox= 10
     iter. #    91  RMS(g-h-1)= 1.454E-06  nbox=  8
     iter. #   101  RMS(g-h-1)= 1.397E-06  nbox=  2
     iter. #   111  RMS(g-h-1)= 1.314E-06  nbox= 10
     iter. #   121  RMS(g-h-1)= 1.284E-06  nbox=  6
     iter. #   131  RMS(g-h-1)= 1.236E-06  nbox= 10
     iter. #   141  RMS(g-h-1)= 1.195E-06  nbox= 10
     iter. #   151  RMS(g-h-1)= 1.154E-06  nbox=  4
     iter. #   161  RMS(g-h-1)= 1.105E-06  nbox= 10
     iter. #   171  RMS(g-h-1)= 1.087E-06  nbox=  8
     iter. #   181  RMS(g-h-1)= 1.065E-06  nbox=  2
     iter. #   191  RMS(g-h-1)= 1.032E-06  nbox= 10
     iter. #   201  RMS(g-h-1)= 1.015E-06  nbox=  6
     iter. #   210  RMS(g-h-1)= 9.996E-07  nbox= 10

     End of Laue-RISM calculation


     convergence has been achieved in   210 iterations


     solvent charge   -0.00552, renormalised to    0.00000

     Total number of solvent (in expand-cell)
     H2O         1126.705837
     K+            20.396041
     OH-           20.395988

     Total charge of solvent (in expand-cell)
     H2O           -0.005552 e
     K+            20.396041 e
     OH-          -20.396011 e
     Total         -0.005522 e

     Chemical potential of solvation (in expand-cell)
     H2O        GaussFluct  -0.650577E+01 kcal/mol
     K+         GaussFluct  -0.126932E+01 kcal/mol
     OH-        GaussFluct  -0.458404E+00 kcal/mol
     Total      GaussFluct  -0.823349E+01 kcal/mol


     total cpu time spent up to now is     1859.1 secs

     total energy              =     -34.68693021 Ry
     estimated scf accuracy    <       0.00005846 Ry

     iteration #  9     ecut=    40.00 Ry     beta= 0.10
     Davidson diagonalization with overlap
     ethr =  7.31E-07,  avg # of iterations =  2.0

     negative rho (up, down):  6.958E-03 0.000E+00

     Laue-RISM Calculation

     convergence threshold    = 1.000E-06
     iter. #     1  RMS(g-h-1)= 2.388E-05  nbox=  0
     iter. #    11  RMS(g-h-1)= 2.894E-06  nbox= 10
     iter. #    21  RMS(g-h-1)= 1.414E-06  nbox= 10
     iter. #    31  RMS(g-h-1)= 1.238E-06  nbox= 10
     iter. #    41  RMS(g-h-1)= 1.116E-06  nbox=  2
     iter. #    51  RMS(g-h-1)= 1.043E-06  nbox= 10
     iter. #    61  RMS(g-h-1)= 1.003E-06  nbox=  6
     iter. #    62  RMS(g-h-1)= 9.979E-07  nbox=  7

     End of Laue-RISM calculation


     convergence has been achieved in    62 iterations


     solvent charge   -0.00556, renormalised to    0.00000

     Total number of solvent (in expand-cell)
     H2O         1126.706581
     K+            20.396200
     OH-           20.396111

     Total charge of solvent (in expand-cell)
     H2O           -0.005537 e
     K+            20.396200 e
     OH-          -20.396226 e
     Total         -0.005563 e

     Chemical potential of solvation (in expand-cell)
     H2O        GaussFluct  -0.651533E+01 kcal/mol
     K+         GaussFluct  -0.127112E+01 kcal/mol
     OH-        GaussFluct  -0.459829E+00 kcal/mol
     Total      GaussFluct  -0.824628E+01 kcal/mol


     total cpu time spent up to now is     1939.7 secs

     total energy              =     -34.68693398 Ry
     estimated scf accuracy    <       0.00001789 Ry

     iteration # 10     ecut=    40.00 Ry     beta= 0.10
     Davidson diagonalization with overlap
     ethr =  2.24E-07,  avg # of iterations =  1.0

     negative rho (up, down):  6.629E-03 0.000E+00

     Laue-RISM Calculation

     convergence threshold    = 1.000E-06
     iter. #     1  RMS(g-h-1)= 5.826E-05  nbox=  0
     iter. #    11  RMS(g-h-1)= 7.453E-06  nbox= 10
     iter. #    21  RMS(g-h-1)= 3.706E-06  nbox= 10
     iter. #    31  RMS(g-h-1)= 2.600E-06  nbox= 10
     iter. #    41  RMS(g-h-1)= 2.262E-06  nbox= 10
     iter. #    51  RMS(g-h-1)= 1.586E-06  nbox=  8
     iter. #    61  RMS(g-h-1)= 1.226E-06  nbox= 10
     iter. #    71  RMS(g-h-1)= 1.131E-06  nbox=  3
     iter. #    81  RMS(g-h-1)= 9.995E-07  nbox= 10

     End of Laue-RISM calculation


     convergence has been achieved in    81 iterations


     solvent charge   -0.00552, renormalised to    0.00000

     Total number of solvent (in expand-cell)
     H2O         1126.702175
     K+            20.395390
     OH-           20.395227

     Total charge of solvent (in expand-cell)
     H2O           -0.005625 e
     K+            20.395390 e
     OH-          -20.395283 e
     Total         -0.005518 e

     Chemical potential of solvation (in expand-cell)
     H2O        GaussFluct  -0.645250E+01 kcal/mol
     K+         GaussFluct  -0.126109E+01 kcal/mol
     OH-        GaussFluct  -0.451774E+00 kcal/mol
     Total      GaussFluct  -0.816536E+01 kcal/mol


     total cpu time spent up to now is     2041.6 secs

     total energy              =     -34.68692016 Ry
     estimated scf accuracy    <       0.00002132 Ry

     iteration # 11     ecut=    40.00 Ry     beta= 0.10
     Davidson diagonalization with overlap
     ethr =  2.24E-07,  avg # of iterations =  1.0

     negative rho (up, down):  6.382E-03 0.000E+00

     Laue-RISM Calculation

     convergence threshold    = 1.000E-06
     iter. #     1  RMS(g-h-1)= 2.490E-05  nbox=  0
     iter. #    11  RMS(g-h-1)= 2.953E-06  nbox= 10
     iter. #    21  RMS(g-h-1)= 1.508E-06  nbox= 10
     iter. #    31  RMS(g-h-1)= 1.240E-06  nbox= 10
     iter. #    41  RMS(g-h-1)= 1.088E-06  nbox=  3
     iter. #    48  RMS(g-h-1)= 9.940E-07  nbox= 10

     End of Laue-RISM calculation


     convergence has been achieved in    48 iterations


     solvent charge   -0.00537, renormalised to    0.00000

     Total number of solvent (in expand-cell)
     H2O         1126.701537
     K+            20.395355
     OH-           20.395232

     Total charge of solvent (in expand-cell)
     H2O           -0.005636 e
     K+            20.395355 e
     OH-          -20.395090 e
     Total         -0.005371 e

     Chemical potential of solvation (in expand-cell)
     H2O        GaussFluct  -0.644520E+01 kcal/mol
     K+         GaussFluct  -0.125987E+01 kcal/mol
     OH-        GaussFluct  -0.449953E+00 kcal/mol
     Total      GaussFluct  -0.815503E+01 kcal/mol


     total cpu time spent up to now is     2107.2 secs

     total energy              =     -34.68691561 Ry
     estimated scf accuracy    <       0.00000561 Ry

     iteration # 12     ecut=    40.00 Ry     beta= 0.10
     Davidson diagonalization with overlap
     ethr =  7.01E-08,  avg # of iterations =  2.0

     negative rho (up, down):  6.496E-03 0.000E+00

     Laue-RISM Calculation

     convergence threshold    = 1.000E-06
     iter. #     1  RMS(g-h-1)= 1.179E-05  nbox=  0
     iter. #    11  RMS(g-h-1)= 1.400E-06  nbox= 10
     iter. #    21  RMS(g-h-1)= 1.078E-06  nbox= 10
     iter. #    31  RMS(g-h-1)= 1.007E-06  nbox=  3
     iter. #    33  RMS(g-h-1)= 9.972E-07  nbox=  5

     End of Laue-RISM calculation


     convergence has been achieved in    33 iterations


     solvent charge   -0.00538, renormalised to   -0.00000

     Total number of solvent (in expand-cell)
     H2O         1126.701023
     K+            20.395359
     OH-           20.395251

     Total charge of solvent (in expand-cell)
     H2O           -0.005633 e
     K+            20.395359 e
     OH-          -20.395110 e
     Total         -0.005384 e

     Chemical potential of solvation (in expand-cell)
     H2O        GaussFluct  -0.644205E+01 kcal/mol
     K+         GaussFluct  -0.125978E+01 kcal/mol
     OH-        GaussFluct  -0.449913E+00 kcal/mol
     Total      GaussFluct  -0.815174E+01 kcal/mol


     total cpu time spent up to now is     2155.9 secs

     End of self-consistent calculation

          k = 0.0000 0.0000 0.0000 (115195 PWs)   bands (ev):

   -25.0444 -12.7388  -9.4422  -7.3534  -0.7380  -0.1830   0.0843   0.0966
     0.1008   0.1271   0.1305   0.2843   0.4078   0.4210   0.4356   0.4909
     0.4956   0.5031   0.5051   0.5070

     the Fermi energy is    -5.2006 ev

!    total energy              =     -34.68690720 Ry
     estimated scf accuracy    <       0.00000014 Ry
     smearing contrib. (-TS)   =      -0.00000000 Ry
     internal energy E=F+TS    =     -34.68690720 Ry

     The total energy is F=E-TS. E is the sum of the following terms:
     one-electron contribution =     -68.92260273 Ry
     hartree contribution      =      35.97354606 Ry
     xc contribution           =      -8.67078549 Ry
     ewald contribution        =       6.95893358 Ry
     solvation energy (RISM)   =      -0.02599863 Ry

     convergence has been achieved in  12 iterations

     Writing all to output data dir output/opt.save/
 
     init_run     :    229.40s CPU    230.81s WALL (       1 calls)
     electrons    :   1788.42s CPU   1828.72s WALL (       1 calls)

     Called by init_run:
     wfcinit      :      0.12s CPU      0.13s WALL (       1 calls)
     potinit      :    227.31s CPU    228.52s WALL (       1 calls)
     hinit0       :      0.54s CPU      0.58s WALL (       1 calls)

     Called by electrons:
     c_bands      :      4.92s CPU      5.03s WALL (      12 calls)
     sum_band     :      4.69s CPU      6.30s WALL (      12 calls)
     v_of_rho     :      4.21s CPU      4.59s WALL (      13 calls)
     newd         :      2.82s CPU      4.38s WALL (      13 calls)
     mix_rho      :      1.11s CPU      1.13s WALL (      12 calls)

     Called by c_bands:
     init_us_2    :      0.03s CPU      0.04s WALL (      25 calls)
     init_us_2:cp :      0.03s CPU      0.04s WALL (      25 calls)
     regterg      :      4.86s CPU      4.90s WALL (      12 calls)

     Called by *egterg:
     rdiaghg      :      0.03s CPU      0.03s WALL (      71 calls)
     h_psi        :      4.32s CPU      4.34s WALL (      72 calls)
     s_psi        :      0.04s CPU      0.04s WALL (      72 calls)
     g_psi        :      0.01s CPU      0.01s WALL (      59 calls)

     Called by h_psi:
     h_psi:calbec :      0.05s CPU      0.05s WALL (      72 calls)
     vloc_psi     :      4.19s CPU      4.21s WALL (      72 calls)
     add_vuspsi   :      0.06s CPU      0.06s WALL (      72 calls)

     General routines
     calbec       :      0.06s CPU      0.06s WALL (      84 calls)
     fft          :      5.36s CPU      5.58s WALL (     181 calls)
     ffts         :      0.20s CPU      0.20s WALL (      25 calls)
     fftw         :      2.93s CPU      2.93s WALL (    1020 calls)
     interpolate  :      0.47s CPU      0.47s WALL (      13 calls)
 
     Parallel routines
     fft_scatt_xy :     31.02s CPU     31.11s WALL (   17846 calls)
     fft_scatt_yz :     93.82s CPU     94.03s WALL (   17846 calls)

     RISM routines
     1DRISM_pre   :      0.00s CPU      0.00s WALL (       1 calls)
     1DRISM_run   :     92.83s CPU     96.08s WALL (       1 calls)
     3DRISM_pre   :     15.52s CPU     15.71s WALL (       1 calls)
     3DRISM_run   :   1980.76s CPU   2018.13s WALL (      13 calls)
     3DRISM_vsol  :      0.43s CPU      0.45s WALL (      13 calls)
 
     PWSCF        :  35m13.23s CPU  36m 4.54s WALL

 
   This run was terminated on:  10: 2:11   5Jun2024            

=------------------------------------------------------------------------------=
   JOB DONE.
=------------------------------------------------------------------------------=
